<?xml version="1.0" encoding="UTF-8"?>

<!-- generated on 2024-11-24 20:28:46 by Eclipse SUMO GUI Version 1.21.0
<sumoConfiguration xmlns:xsi="http://www.w3.org/2001/XMLSchema-instance" xsi:noNamespaceSchemaLocation="http://sumo.dlr.de/xsd/sumoConfiguration.xsd">

    <input>
        <net-file value="C:\Users\hg25079\Documents\GitHub\cav_casestudy-main\SUMO\chatt.net.xml"/>
        <route-files value="C:\Users\hg25079\Documents\GitHub\cav_casestudy-main\SUMO\chatt.rou.xml"/>
        <additional-files value="C:\Users\hg25079\Documents\GitHub\cav_casestudy-main\SUMO\updated_signal.xml,C:\Users\hg25079\Documents\GitHub\cav_casestudy-main\SUMO\Edge.add.xml"/>
    </input>

    <output>
        <fcd-output value="C:\Users\hg25079\Documents\GitHub\cav_casestudy-main\SUMO\fcd.xml"/>
        <edgedata-output value="C:\Users\hg25079\Documents\GitHub\cav_casestudy-main\SUMO\EdgeData.xml"/>
    </output>

    <time>
        <begin value="28800"/>
        <end value="32400"/>
        <step-length value="1"/>
    </time>

    <processing>
        <lateral-resolution value="0.8"/>
    </processing>

    <report>
        <no-warnings value="true"/>
        <no-step-log value="true"/>
    </report>

    <traci_server>
        <remote-port value="52048"/>
    </traci_server>

    <random_number>
        <seed value="101"/>
    </random_number>

    <gui_only>
        <start value="t"/>
    </gui_only>

</sumoConfiguration>
-->

<fcd-export xmlns:xsi="http://www.w3.org/2001/XMLSchema-instance" xsi:noNamespaceSchemaLocation="http://sumo.dlr.de/xsd/fcd_file.xsd">
    <timestep time="28800.00">
        <vehicle id="1.0" x="3.01" y="601.82" angle="114.26" type="car" speed="0.00" pos="5.10" lane="-309_0" slope="0.00"/>
        <vehicle id="10.0" x="895.40" y="516.91" angle="201.69" type="car" speed="0.00" pos="5.10" lane="-318_0" slope="0.00"/>
        <vehicle id="11.0" x="207.06" y="523.33" angle="88.59" type="car" speed="0.00" pos="5.10" lane="-331_0" slope="0.00"/>
        <vehicle id="12.0" x="662.58" y="496.37" angle="23.06" type="car" speed="0.00" pos="5.10" lane="-320_0" slope="0.00"/>
        <vehicle id="13.0" x="817.31" y="434.44" angle="346.51" type="car" speed="0.00" pos="5.10" lane="-316_0" slope="0.00"/>
        <vehicle id="14.0" x="957.71" y="417.91" angle="192.70" type="car" speed="0.00" pos="5.10" lane="-330_0" slope="0.00"/>
        <vehicle id="15.0" x="663.06" y="878.82" angle="226.48" type="car" speed="0.00" pos="5.10" lane="-292_0" slope="0.00"/>
        <vehicle id="16.0" x="162.87" y="226.75" angle="50.81" type="car" speed="0.00" pos="5.10" lane="-310_0" slope="0.00"/>
        <vehicle id="2.0" x="239.85" y="693.43" angle="113.16" type="car" speed="0.00" pos="5.10" lane="-312_0" slope="0.00"/>
        <vehicle id="3.0" x="327.11" y="784.12" angle="251.74" type="car" speed="0.00" pos="5.10" lane="-324_0" slope="0.00"/>
        <vehicle id="4.0" x="1376.09" y="228.55" angle="292.11" type="car" speed="0.00" pos="5.10" lane="-2801_0" slope="0.00"/>
        <vehicle id="5.0" x="858.15" y="1.52" angle="22.97" type="car" speed="0.00" pos="5.10" lane="-308_0" slope="0.00"/>
        <vehicle id="6.0" x="1015.57" y="426.69" angle="202.51" type="car" speed="0.00" pos="5.10" lane="-326_0" slope="0.00"/>
        <vehicle id="7.0" x="609.60" y="451.58" angle="32.91" type="car" speed="0.00" pos="5.10" lane="-319_0" slope="0.00"/>
        <vehicle id="8.0" x="696.20" y="691.55" angle="197.00" type="car" speed="0.00" pos="5.10" lane="-325_0" slope="0.00"/>
        <vehicle id="9.0" x="863.71" y="416.14" angle="23.42" type="car" speed="0.00" pos="5.10" lane="-317_0" slope="0.00"/>
    </timestep>
    <timestep time="28801.00">
        <vehicle id="1.0" x="4.72" y="601.05" angle="114.26" type="car" speed="1.80" pos="6.90" lane="-309_0" slope="0.00"/>
        <vehicle id="10.0" x="894.88" y="515.60" angle="201.69" type="car" speed="1.74" pos="6.84" lane="-318_0" slope="0.00"/>
        <vehicle id="11.0" x="209.38" y="523.01" angle="95.29" type="car" speed="2.41" pos="7.51" lane="-331_0" slope="0.00"/>
        <vehicle id="12.0" x="663.00" y="497.35" angle="23.06" type="car" speed="1.63" pos="6.73" lane="-320_0" slope="0.00"/>
        <vehicle id="13.0" x="817.37" y="435.13" angle="353.42" type="car" speed="1.58" pos="6.68" lane="-316_0" slope="0.00"/>
        <vehicle id="14.0" x="957.54" y="417.16" angle="192.70" type="car" speed="2.04" pos="7.14" lane="-330_0" slope="0.00"/>
        <vehicle id="15.0" x="661.43" y="877.28" angle="226.48" type="car" speed="2.36" pos="7.46" lane="-292_0" slope="0.00"/>
        <vehicle id="16.0" x="163.99" y="227.67" angle="50.81" type="car" speed="1.49" pos="6.59" lane="-310_0" slope="0.00"/>
        <vehicle id="2.0" x="240.66" y="693.08" angle="113.16" type="car" speed="1.72" pos="6.82" lane="-312_0" slope="0.00"/>
        <vehicle id="3.0" x="325.71" y="783.65" angle="251.74" type="car" speed="1.60" pos="6.70" lane="-324_0" slope="0.00"/>
        <vehicle id="4.0" x="1373.86" y="229.45" angle="292.11" type="car" speed="2.44" pos="7.54" lane="-2801_0" slope="0.00"/>
        <vehicle id="5.0" x="859.01" y="3.55" angle="22.97" type="car" speed="2.30" pos="7.40" lane="-308_0" slope="0.00"/>
        <vehicle id="6.0" x="1016.03" y="425.15" angle="190.81" type="car" speed="1.75" pos="6.85" lane="-326_0" slope="0.00"/>
        <vehicle id="7.0" x="609.27" y="453.00" angle="20.18" type="car" speed="1.37" pos="6.47" lane="-319_0" slope="0.00"/>
        <vehicle id="8.0" x="695.42" y="689.57" angle="199.20" type="car" speed="2.41" pos="7.51" lane="-325_0" slope="0.00"/>
        <vehicle id="9.0" x="863.10" y="417.23" angle="11.89" type="car" speed="2.05" pos="7.15" lane="-317_0" slope="0.00"/>
    </timestep>
    <timestep time="28802.00">
        <vehicle id="1.0" x="8.74" y="599.24" angle="114.26" type="car" speed="4.25" pos="11.15" lane="-309_0" slope="0.00"/>
        <vehicle id="10.0" x="893.63" y="512.45" angle="201.69" type="car" speed="4.19" pos="11.03" lane="-318_0" slope="0.00"/>
        <vehicle id="11.0" x="213.87" y="522.07" angle="101.77" type="car" speed="4.71" pos="12.22" lane="-331_0" slope="0.00"/>
        <vehicle id="12.0" x="664.05" y="499.81" angle="23.06" type="car" speed="4.09" pos="10.81" lane="-320_0" slope="0.00"/>
        <vehicle id="13.0" x="817.76" y="436.89" angle="11.83" type="car" speed="4.08" pos="10.76" lane="-316_0" slope="0.00"/>
        <vehicle id="14.0" x="957.18" y="415.58" angle="192.70" type="car" speed="4.30" pos="11.44" lane="-330_0" slope="0.00"/>
        <vehicle id="15.0" x="658.86" y="874.84" angle="226.48" type="car" speed="3.74" pos="11.21" lane="-292_0" slope="0.00"/>
        <vehicle id="16.0" x="166.95" y="230.08" angle="50.81" type="car" speed="3.93" pos="10.52" lane="-310_0" slope="0.00"/>
        <vehicle id="2.0" x="242.48" y="692.30" angle="113.16" type="car" speed="3.84" pos="10.66" lane="-312_0" slope="0.00"/>
        <vehicle id="3.0" x="322.23" y="782.51" angle="251.74" type="car" speed="3.97" pos="10.67" lane="-324_0" slope="0.00"/>
        <vehicle id="4.0" x="1370.17" y="230.95" angle="292.11" type="car" speed="4.02" pos="11.56" lane="-2801_0" slope="0.00"/>
        <vehicle id="5.0" x="860.40" y="6.83" angle="22.97" type="car" speed="3.72" pos="11.11" lane="-308_0" slope="0.00"/>
        <vehicle id="6.0" x="1016.18" y="422.84" angle="188.02" type="car" speed="3.88" pos="10.73" lane="-326_1" slope="0.00"/>
        <vehicle id="7.0" x="609.80" y="456.02" angle="14.12" type="car" speed="3.32" pos="9.79" lane="-319_1" slope="0.00"/>
        <vehicle id="8.0" x="694.09" y="686.18" angle="201.34" type="car" speed="4.12" pos="11.63" lane="-325_0" slope="0.00"/>
        <vehicle id="9.0" x="862.79" y="419.05" angle="10.25" type="car" speed="4.18" pos="11.34" lane="-317_1" slope="0.00"/>
    </timestep>
    <timestep time="28803.00">
        <vehicle id="1.0" x="15.02" y="596.41" angle="114.26" type="car" speed="6.63" pos="17.78" lane="-309_0" slope="0.00"/>
        <vehicle id="10.0" x="891.73" y="507.66" angle="201.69" type="car" speed="6.36" pos="17.39" lane="-318_0" slope="0.00"/>
        <vehicle id="11.0" x="219.70" y="520.29" angle="107.57" type="car" speed="6.26" pos="18.48" lane="-331_0" slope="0.00"/>
        <vehicle id="12.0" x="665.76" y="503.82" angle="23.06" type="car" speed="6.69" pos="17.50" lane="-320_0" slope="0.00"/>
        <vehicle id="13.0" x="818.68" y="439.45" angle="20.70" type="car" speed="6.18" pos="16.95" lane="-316_0" slope="0.00"/>
        <vehicle id="14.0" x="948.79" y="410.63" angle="241.85" type="car" speed="6.67" pos="1.56" lane="-327_0" slope="0.00"/>
        <vehicle id="15.0" x="654.91" y="871.09" angle="226.48" type="car" speed="5.76" pos="16.96" lane="-292_0" slope="0.00"/>
        <vehicle id="16.0" x="171.80" y="234.03" angle="50.81" type="car" speed="6.44" pos="16.96" lane="-310_0" slope="0.00"/>
        <vehicle id="2.0" x="245.21" y="691.13" angle="113.16" type="car" speed="5.78" pos="16.44" lane="-312_0" slope="0.00"/>
        <vehicle id="3.0" x="316.99" y="779.72" angle="242.78" type="car" speed="6.34" pos="17.02" lane="-324_0" slope="0.00"/>
        <vehicle id="4.0" x="1364.62" y="233.21" angle="292.11" type="car" speed="6.06" pos="17.62" lane="-2801_0" slope="0.00"/>
        <vehicle id="5.0" x="862.74" y="12.36" angle="22.97" type="car" speed="6.27" pos="17.39" lane="-308_0" slope="0.00"/>
        <vehicle id="6.0" x="1014.99" y="418.52" angle="197.07" type="car" speed="6.07" pos="16.80" lane="-326_1" slope="0.00"/>
        <vehicle id="7.0" x="610.69" y="459.91" angle="15.91" type="car" speed="4.94" pos="14.73" lane="-319_1" slope="0.00"/>
        <vehicle id="8.0" x="692.15" y="681.22" angle="201.30" type="car" speed="6.03" pos="17.66" lane="-325_0" slope="0.00"/>
        <vehicle id="9.0" x="863.18" y="421.20" angle="18.43" type="car" speed="5.73" pos="17.07" lane="-317_1" slope="0.00"/>
    </timestep>
    <timestep time="28804.00">
        <vehicle id="1.0" x="23.38" y="592.64" angle="114.26" type="car" speed="8.84" pos="26.61" lane="-309_0" slope="0.00"/>
        <vehicle id="10.0" x="889.10" y="501.07" angle="201.68" type="car" speed="8.77" pos="26.16" lane="-318_0" slope="0.00"/>
        <vehicle id="11.0" x="227.27" y="517.03" angle="113.67" type="car" speed="8.47" pos="26.95" lane="-331_0" slope="0.00"/>
        <vehicle id="12.0" x="676.64" y="510.33" angle="67.18" type="car" speed="8.90" pos="2.00" lane="-3221_0" slope="0.00"/>
        <vehicle id="13.0" x="828.74" y="443.77" angle="72.34" type="car" speed="8.21" pos="2.96" lane="-313_0" slope="0.00"/>
        <vehicle id="14.0" x="942.59" y="413.23" angle="292.74" type="car" speed="8.25" pos="9.81" lane="-327_0" slope="0.00"/>
        <vehicle id="15.0" x="649.64" y="866.08" angle="226.48" type="car" speed="7.68" pos="24.64" lane="-292_0" slope="0.00"/>
        <vehicle id="16.0" x="178.44" y="239.51" angle="50.18" type="car" speed="8.87" pos="25.83" lane="-310_0" slope="0.00"/>
        <vehicle id="2.0" x="269.68" y="684.39" angle="105.05" type="car" speed="7.08" pos="1.01" lane="-293_0" slope="0.00"/>
        <vehicle id="3.0" x="311.14" y="776.74" angle="244.30" type="car" speed="7.67" pos="24.68" lane="-324_1" slope="0.00"/>
        <vehicle id="4.0" x="1357.16" y="236.24" angle="292.11" type="car" speed="8.15" pos="25.77" lane="-2801_0" slope="0.00"/>
        <vehicle id="5.0" x="865.81" y="19.61" angle="22.97" type="car" speed="8.21" pos="25.59" lane="-308_0" slope="0.00"/>
        <vehicle id="6.0" x="1013.64" y="413.16" angle="195.97" type="car" speed="7.50" pos="24.30" lane="-326_1" slope="0.00"/>
        <vehicle id="7.0" x="612.00" y="464.88" angle="17.10" type="car" speed="6.49" pos="21.22" lane="-319_1" slope="0.00"/>
        <vehicle id="8.0" x="689.43" y="674.30" angle="201.40" type="car" speed="8.42" pos="26.07" lane="-325_0" slope="0.00"/>
        <vehicle id="9.0" x="863.14" y="422.87" angle="14.54" type="car" speed="4.10" pos="21.17" lane="-317_1" slope="0.00"/>
    </timestep>
    <timestep time="28805.00">
        <vehicle id="1.0" x="33.67" y="588.01" angle="114.26" type="car" speed="10.87" pos="37.48" lane="-309_0" slope="0.00"/>
        <vehicle id="10.0" x="885.79" y="492.70" angle="201.51" type="car" speed="11.11" pos="37.27" lane="-318_0" slope="0.00"/>
        <vehicle id="11.0" x="236.93" y="512.79" angle="113.67" type="car" speed="10.83" pos="37.78" lane="-331_0" slope="0.00"/>
        <vehicle id="12.0" x="686.07" y="506.56" angle="111.88" type="car" speed="10.75" pos="12.75" lane="-3221_0" slope="0.00"/>
        <vehicle id="13.0" x="834.58" y="441.45" angle="112.00" type="car" speed="9.90" pos="12.86" lane="-313_0" slope="0.00"/>
        <vehicle id="14.0" x="934.28" y="415.63" angle="287.42" type="car" speed="10.57" pos="20.38" lane="-327_0" slope="0.00"/>
        <vehicle id="15.0" x="642.58" y="859.37" angle="226.48" type="car" speed="10.28" pos="34.92" lane="-292_0" slope="0.00"/>
        <vehicle id="16.0" x="185.82" y="246.28" angle="46.75" type="car" speed="10.31" pos="36.14" lane="-310_0" slope="0.00"/>
        <vehicle id="16.1" x="162.87" y="226.75" angle="50.81" type="car" speed="0.00" pos="5.10" lane="-310_0" slope="0.00"/>
        <vehicle id="2.0" x="275.99" y="681.84" angle="112.07" type="car" speed="8.72" pos="9.73" lane="-293_0" slope="0.00"/>
        <vehicle id="3.0" x="303.83" y="772.93" angle="241.29" type="car" speed="9.03" pos="33.71" lane="-324_1" slope="0.00"/>
        <vehicle id="4.0" x="1348.50" y="239.76" angle="292.11" type="car" speed="9.45" pos="35.22" lane="-2801_0" slope="0.00"/>
        <vehicle id="4.1" x="1376.09" y="228.55" angle="292.11" type="car" speed="0.00" pos="5.10" lane="-2801_0" slope="0.00"/>
        <vehicle id="5.0" x="868.65" y="28.87" angle="17.29" type="car" speed="10.06" pos="35.65" lane="-308_0" slope="0.00"/>
        <vehicle id="6.0" x="1011.20" y="406.76" angle="200.74" type="car" speed="9.37" pos="33.68" lane="-326_1" slope="0.00"/>
        <vehicle id="7.0" x="613.94" y="471.41" angle="17.91" type="car" speed="8.17" pos="29.39" lane="-319_2" slope="0.00"/>
        <vehicle id="8.0" x="686.08" y="665.77" angle="201.44" type="car" speed="10.38" pos="36.45" lane="-325_0" slope="0.00"/>
        <vehicle id="9.0" x="863.17" y="422.95" angle="14.92" type="car" speed="0.22" pos="21.39" lane="-317_1" slope="0.00"/>
    </timestep>
    <timestep time="28806.00">
        <vehicle id="1.0" x="45.38" y="582.73" angle="114.26" type="car" speed="12.36" pos="49.84" lane="-309_0" slope="0.00"/>
        <vehicle id="10.0" x="881.73" y="482.58" angle="202.06" type="car" speed="13.47" pos="50.74" lane="-318_0" slope="0.00"/>
        <vehicle id="11.0" x="248.01" y="507.94" angle="113.67" type="car" speed="12.43" pos="50.21" lane="-331_0" slope="0.00"/>
        <vehicle id="12.0" x="697.54" y="501.82" angle="112.47" type="car" speed="13.14" pos="25.89" lane="-3221_0" slope="0.00"/>
        <vehicle id="13.0" x="841.31" y="438.54" angle="113.08" type="car" speed="11.57" pos="24.44" lane="-313_0" slope="0.00"/>
        <vehicle id="14.0" x="924.21" y="418.80" angle="288.49" type="car" speed="12.91" pos="33.29" lane="-327_1" slope="0.00"/>
        <vehicle id="15.0" x="634.53" y="851.77" angle="226.86" type="car" speed="11.69" pos="46.60" lane="-292_0" slope="0.00"/>
        <vehicle id="15.1" x="663.06" y="878.82" angle="226.48" type="car" speed="0.00" pos="5.10" lane="-292_0" slope="0.00"/>
        <vehicle id="16.0" x="193.82" y="254.38" angle="43.62" type="car" speed="11.73" pos="47.87" lane="-310_0" slope="0.00"/>
        <vehicle id="16.1" x="164.40" y="228.00" angle="50.81" type="car" speed="2.03" pos="7.13" lane="-310_0" slope="0.00"/>
        <vehicle id="2.0" x="283.45" y="678.82" angle="111.99" type="car" speed="10.32" pos="20.05" lane="-293_0" slope="0.00"/>
        <vehicle id="3.0" x="295.14" y="767.78" angle="235.95" type="car" speed="11.24" pos="44.95" lane="-324_1" slope="0.00"/>
        <vehicle id="4.0" x="1337.57" y="244.19" angle="292.11" type="car" speed="11.93" pos="47.15" lane="-2801_0" slope="0.00"/>
        <vehicle id="4.1" x="1374.19" y="229.32" angle="292.11" type="car" speed="2.07" pos="7.17" lane="-2801_0" slope="0.00"/>
        <vehicle id="5.0" x="872.16" y="39.73" angle="18.15" type="car" speed="11.86" pos="47.51" lane="-308_1" slope="0.00"/>
        <vehicle id="6.0" x="1008.52" y="399.66" angle="200.63" type="car" speed="10.37" pos="44.05" lane="-326_1" slope="0.00"/>
        <vehicle id="7.0" x="616.32" y="478.92" angle="19.25" type="car" speed="10.13" pos="39.53" lane="-319_2" slope="0.00"/>
        <vehicle id="8.0" x="682.13" y="655.72" angle="201.44" type="car" speed="12.22" pos="48.67" lane="-325_0" slope="0.00"/>
        <vehicle id="9.0" x="863.18" y="422.96" angle="14.99" type="car" speed="0.04" pos="21.43" lane="-317_1" slope="0.00"/>
    </timestep>
    <timestep time="28807.00">
        <vehicle id="1.0" x="58.59" y="576.78" angle="114.26" type="car" speed="13.96" pos="63.80" lane="-309_0" slope="0.00"/>
        <vehicle id="10.0" x="876.97" y="471.45" angle="203.09" type="car" speed="14.95" pos="65.69" lane="-318_0" slope="0.00"/>
        <vehicle id="11.0" x="260.63" y="502.16" angle="113.73" type="car" speed="14.25" pos="64.47" lane="-331_0" slope="0.00"/>
        <vehicle id="12.0" x="711.09" y="496.11" angle="112.87" type="car" speed="15.56" pos="41.44" lane="-3221_0" slope="0.00"/>
        <vehicle id="13.0" x="848.70" y="435.47" angle="112.59" type="car" speed="12.63" pos="37.07" lane="-313_0" slope="0.00"/>
        <vehicle id="14.0" x="912.99" y="422.43" angle="288.76" type="car" speed="14.43" pos="47.72" lane="-327_1" slope="0.00"/>
        <vehicle id="15.0" x="624.81" y="842.94" angle="228.07" type="car" speed="13.87" pos="60.47" lane="-292_0" slope="0.00"/>
        <vehicle id="15.1" x="661.46" y="877.31" angle="226.48" type="car" speed="2.32" pos="7.42" lane="-292_0" slope="0.00"/>
        <vehicle id="16.0" x="202.15" y="265.19" angle="37.69" type="car" speed="14.02" pos="61.88" lane="-310_0" slope="0.00"/>
        <vehicle id="16.1" x="167.76" y="230.74" angle="50.81" type="car" speed="4.47" pos="11.60" lane="-310_0" slope="0.00"/>
        <vehicle id="2.0" x="292.47" y="675.16" angle="112.00" type="car" speed="12.47" pos="32.52" lane="-293_0" slope="0.00"/>
        <vehicle id="3.0" x="286.96" y="759.61" angle="222.89" type="car" speed="12.87" pos="57.83" lane="-324_1" slope="0.00"/>
        <vehicle id="4.0" x="1325.45" y="249.12" angle="292.11" type="car" speed="13.23" pos="60.39" lane="-2801_0" slope="0.00"/>
        <vehicle id="4.1" x="1370.38" y="230.87" angle="292.11" type="car" speed="4.16" pos="11.33" lane="-2801_0" slope="0.00"/>
        <vehicle id="5.0" x="876.36" y="52.17" angle="18.82" type="car" speed="13.66" pos="61.17" lane="-308_1" slope="0.00"/>
        <vehicle id="6.0" x="1006.89" y="395.32" angle="200.63" type="car" speed="6.35" pos="50.40" lane="-326_1" slope="0.00"/>
        <vehicle id="7.0" x="620.02" y="487.84" angle="23.05" type="car" speed="12.49" pos="52.02" lane="-319_2" slope="0.00"/>
        <vehicle id="8.0" x="677.37" y="643.59" angle="201.44" type="car" speed="14.75" pos="63.42" lane="-325_0" slope="0.00"/>
        <vehicle id="9.0" x="863.18" y="422.97" angle="15.01" type="car" speed="0.01" pos="21.44" lane="-317_1" slope="0.00"/>
    </timestep>
    <timestep time="28808.00">
        <vehicle id="1.0" x="74.32" y="570.80" angle="110.77" type="car" speed="16.17" pos="79.97" lane="-309_0" slope="0.00"/>
        <vehicle id="10.0" x="873.29" y="462.82" angle="203.09" type="car" speed="11.58" pos="77.27" lane="-318_0" slope="0.00"/>
        <vehicle id="11.0" x="276.07" y="501.19" angle="80.80" type="car" speed="16.22" pos="80.69" lane="-331_0" slope="0.00"/>
        <vehicle id="12.0" x="725.23" y="490.25" angle="112.53" type="car" speed="16.20" pos="57.64" lane="-3221_0" slope="0.00"/>
        <vehicle id="13.0" x="875.31" y="424.33" angle="112.75" type="car" speed="12.44" pos="2.22" lane="-284_0" slope="0.00"/>
        <vehicle id="14.0" x="901.00" y="427.38" angle="292.51" type="car" speed="15.92" pos="63.64" lane="-327_1" slope="0.00"/>
        <vehicle id="15.0" x="613.13" y="832.77" angle="229.20" type="car" speed="16.35" pos="76.82" lane="-292_0" slope="0.00"/>
        <vehicle id="15.1" x="658.37" y="874.37" angle="226.48" type="car" speed="4.51" pos="11.93" lane="-292_0" slope="0.00"/>
        <vehicle id="16.0" x="212.15" y="277.88" angle="38.22" type="car" speed="16.09" pos="77.97" lane="-310_1" slope="0.00"/>
        <vehicle id="16.1" x="172.52" y="234.62" angle="50.81" type="car" speed="6.32" pos="17.92" lane="-310_0" slope="0.00"/>
        <vehicle id="2.0" x="302.51" y="671.09" angle="112.12" type="car" speed="13.88" pos="46.40" lane="-293_0" slope="0.00"/>
        <vehicle id="2.1" x="239.85" y="693.43" angle="113.16" type="car" speed="0.00" pos="5.10" lane="-312_0" slope="0.00"/>
        <vehicle id="3.0" x="279.90" y="748.24" angle="204.26" type="car" speed="15.00" pos="72.82" lane="-324_1" slope="0.00"/>
        <vehicle id="4.0" x="1311.96" y="254.60" angle="292.11" type="car" speed="14.73" pos="75.12" lane="-2801_0" slope="0.00"/>
        <vehicle id="4.1" x="1364.97" y="233.07" angle="292.11" type="car" speed="5.91" pos="17.24" lane="-2801_0" slope="0.00"/>
        <vehicle id="5.0" x="881.94" y="65.88" angle="22.19" type="car" speed="15.44" pos="76.61" lane="-308_1" slope="0.00"/>
        <vehicle id="6.0" x="1006.28" y="393.69" angle="200.63" type="car" speed="2.38" pos="52.78" lane="-326_1" slope="0.00"/>
        <vehicle id="7.0" x="624.60" y="497.72" angle="24.88" type="car" speed="14.11" pos="66.13" lane="-319_2" slope="0.00"/>
        <vehicle id="8.0" x="672.18" y="630.39" angle="201.44" type="car" speed="16.05" pos="79.47" lane="-325_0" slope="0.00"/>
        <vehicle id="9.0" x="863.18" y="422.97" angle="15.02" type="car" speed="0.00" pos="21.45" lane="-317_1" slope="0.00"/>
    </timestep>
    <timestep time="28809.00">
        <vehicle id="1.0" x="87.35" y="566.28" angle="108.38" type="car" speed="18.39" pos="98.36" lane="-309_1" slope="0.00"/>
        <vehicle id="10.0" x="871.04" y="457.54" angle="203.09" type="car" speed="7.08" pos="84.36" lane="-318_0" slope="0.00"/>
        <vehicle id="11.0" x="283.86" y="517.01" angle="18.99" type="car" speed="18.57" pos="99.26" lane="-331_0" slope="0.00"/>
        <vehicle id="12.0" x="739.91" y="484.17" angle="112.49" type="car" speed="16.83" pos="74.47" lane="-3221_0" slope="0.00"/>
        <vehicle id="12.1" x="662.58" y="496.37" angle="23.06" type="car" speed="0.00" pos="5.10" lane="-320_0" slope="0.00"/>
        <vehicle id="13.0" x="884.70" y="420.37" angle="112.87" type="car" speed="12.51" pos="14.74" lane="-284_0" slope="0.00"/>
        <vehicle id="14.0" x="888.91" y="432.48" angle="292.87" type="car" speed="16.12" pos="79.76" lane="-327_1" slope="0.00"/>
        <vehicle id="15.0" x="600.09" y="821.52" angle="229.20" type="car" speed="18.18" pos="95.00" lane="-292_0" slope="0.00"/>
        <vehicle id="15.1" x="653.92" y="870.14" angle="226.48" type="car" speed="6.48" pos="18.41" lane="-292_0" slope="0.00"/>
        <vehicle id="16.0" x="223.36" y="291.94" angle="38.68" type="car" speed="18.49" pos="96.47" lane="-310_1" slope="0.00"/>
        <vehicle id="16.1" x="178.65" y="239.69" angle="50.08" type="car" speed="8.19" pos="26.11" lane="-310_0" slope="0.00"/>
        <vehicle id="2.0" x="313.99" y="666.44" angle="112.07" type="car" speed="15.87" pos="62.28" lane="-293_0" slope="0.00"/>
        <vehicle id="2.1" x="240.69" y="693.06" angle="113.16" type="car" speed="1.79" pos="6.89" lane="-312_0" slope="0.00"/>
        <vehicle id="3.0" x="274.42" y="733.45" angle="200.42" type="car" speed="17.55" pos="90.37" lane="-324_1" slope="0.00"/>
        <vehicle id="4.0" x="1296.80" y="260.76" angle="292.11" type="car" speed="16.55" pos="91.67" lane="-2801_0" slope="0.00"/>
        <vehicle id="4.1" x="1357.25" y="236.20" angle="292.11" type="car" speed="8.42" pos="25.67" lane="-2801_0" slope="0.00"/>
        <vehicle id="5.0" x="888.45" y="81.23" angle="22.96" type="car" speed="17.40" pos="94.01" lane="-308_1" slope="0.00"/>
        <vehicle id="6.0" x="1006.24" y="393.59" angle="200.63" type="car" speed="0.14" pos="52.91" lane="-326_1" slope="0.00"/>
        <vehicle id="7.0" x="628.23" y="505.53" angle="24.88" type="car" speed="11.16" pos="77.29" lane="-319_2" slope="0.00"/>
        <vehicle id="8.0" x="666.37" y="615.58" angle="201.44" type="car" speed="18.01" pos="97.48" lane="-325_0" slope="0.00"/>
        <vehicle id="9.0" x="863.18" y="422.97" angle="15.02" type="car" speed="0.00" pos="21.45" lane="-317_1" slope="0.00"/>
    </timestep>
    <timestep time="28810.00">
        <vehicle id="1.0" x="103.07" y="555.01" angle="127.75" type="car" speed="20.07" pos="118.42" lane="-309_1" slope="0.00"/>
        <vehicle id="10.0" x="869.72" y="454.44" angle="203.09" type="car" speed="4.16" pos="88.52" lane="-318_0" slope="0.00"/>
        <vehicle id="11.0" x="291.31" y="536.20" angle="21.32" type="car" speed="21.14" pos="120.39" lane="-331_0" slope="0.00"/>
        <vehicle id="11.1" x="207.06" y="523.33" angle="88.59" type="car" speed="0.00" pos="5.10" lane="-331_0" slope="0.00"/>
        <vehicle id="12.0" x="754.53" y="478.09" angle="112.57" type="car" speed="16.76" pos="91.23" lane="-3221_0" slope="0.00"/>
        <vehicle id="12.1" x="663.19" y="497.79" angle="23.06" type="car" speed="2.35" pos="7.45" lane="-320_0" slope="0.00"/>
        <vehicle id="13.0" x="893.83" y="416.51" angle="112.87" type="car" speed="12.17" pos="26.90" lane="-284_0" slope="0.00"/>
        <vehicle id="13.1" x="817.31" y="434.44" angle="346.51" type="car" speed="0.00" pos="5.10" lane="-316_0" slope="0.00"/>
        <vehicle id="14.0" x="859.79" y="448.18" angle="300.24" type="car" speed="15.50" pos="1.78" lane="-281_1" slope="0.00"/>
        <vehicle id="14.1" x="957.71" y="417.91" angle="192.70" type="car" speed="0.00" pos="5.10" lane="-330_0" slope="0.00"/>
        <vehicle id="15.0" x="585.65" y="809.05" angle="229.20" type="car" speed="20.14" pos="115.14" lane="-292_0" slope="0.00"/>
        <vehicle id="15.1" x="648.50" y="865.00" angle="226.48" type="car" speed="7.89" pos="26.30" lane="-292_0" slope="0.00"/>
        <vehicle id="16.0" x="236.75" y="307.23" angle="41.23" type="car" speed="20.93" pos="117.39" lane="-310_1" slope="0.00"/>
        <vehicle id="16.1" x="185.59" y="246.06" angle="46.86" type="car" speed="9.70" pos="35.81" lane="-310_0" slope="0.00"/>
        <vehicle id="16.2" x="162.87" y="226.75" angle="50.81" type="car" speed="0.00" pos="5.10" lane="-310_0" slope="0.00"/>
        <vehicle id="2.0" x="322.29" y="663.08" angle="112.07" type="car" speed="11.47" pos="73.75" lane="-293_0" slope="0.00"/>
        <vehicle id="2.1" x="242.42" y="692.32" angle="113.16" type="car" speed="3.65" pos="10.54" lane="-312_0" slope="0.00"/>
        <vehicle id="3.0" x="269.89" y="721.28" angle="200.42" type="car" speed="14.44" pos="104.81" lane="-324_1" slope="0.00"/>
        <vehicle id="4.0" x="1280.35" y="266.36" angle="288.85" type="car" speed="17.55" pos="109.22" lane="-2801_0" slope="0.00"/>
        <vehicle id="4.1" x="1347.55" y="240.14" angle="292.11" type="car" speed="10.60" pos="36.26" lane="-2801_0" slope="0.00"/>
        <vehicle id="4.2" x="1376.09" y="228.55" angle="292.11" type="car" speed="0.00" pos="5.10" lane="-2801_0" slope="0.00"/>
        <vehicle id="5.0" x="895.68" y="98.31" angle="22.96" type="car" speed="19.35" pos="113.37" lane="-308_1" slope="0.00"/>
        <vehicle id="5.1" x="858.15" y="1.52" angle="22.97" type="car" speed="0.00" pos="5.10" lane="-308_0" slope="0.00"/>
        <vehicle id="6.0" x="1006.24" y="393.59" angle="200.63" type="car" speed="0.01" pos="52.93" lane="-326_1" slope="0.00"/>
        <vehicle id="7.0" x="630.39" y="510.20" angle="24.88" type="car" speed="6.66" pos="83.95" lane="-319_2" slope="0.00"/>
        <vehicle id="8.0" x="659.99" y="599.32" angle="201.44" type="car" speed="19.77" pos="117.25" lane="-325_0" slope="0.00"/>
        <vehicle id="9.0" x="863.18" y="422.97" angle="15.02" type="car" speed="0.00" pos="21.45" lane="-317_1" slope="0.00"/>
    </timestep>
    <timestep time="28811.00">
        <vehicle id="1.0" x="119.81" y="540.90" angle="130.22" type="car" speed="22.26" pos="140.68" lane="-309_1" slope="0.00"/>
        <vehicle id="10.0" x="869.72" y="454.44" angle="203.09" type="car" speed="0.01" pos="88.53" lane="-318_0" slope="0.00"/>
        <vehicle id="11.0" x="299.73" y="557.15" angle="21.94" type="car" speed="23.19" pos="143.58" lane="-331_0" slope="0.00"/>
        <vehicle id="11.1" x="208.54" y="523.16" angle="93.18" type="car" speed="1.53" pos="6.63" lane="-331_0" slope="0.00"/>
        <vehicle id="12.0" x="769.33" y="471.96" angle="112.55" type="car" speed="16.95" pos="108.19" lane="-3221_0" slope="0.00"/>
        <vehicle id="12.1" x="664.41" y="500.66" angle="23.06" type="car" speed="4.79" pos="12.24" lane="-320_0" slope="0.00"/>
        <vehicle id="13.0" x="902.66" y="412.79" angle="112.87" type="car" speed="11.77" pos="38.67" lane="-284_0" slope="0.00"/>
        <vehicle id="13.1" x="817.36" y="435.11" angle="353.10" type="car" speed="1.52" pos="6.62" lane="-316_0" slope="0.00"/>
        <vehicle id="14.0" x="850.23" y="452.16" angle="292.60" type="car" speed="16.33" pos="18.11" lane="-281_1" slope="0.00"/>
        <vehicle id="14.1" x="957.58" y="417.34" angle="192.70" type="car" speed="1.55" pos="6.65" lane="-330_0" slope="0.00"/>
        <vehicle id="15.0" x="569.98" y="795.92" angle="231.44" type="car" speed="21.59" pos="136.73" lane="-292_0" slope="0.00"/>
        <vehicle id="15.1" x="642.79" y="858.20" angle="220.35" type="car" speed="9.32" pos="35.61" lane="-292_0" slope="0.00"/>
        <vehicle id="15.2" x="663.06" y="878.82" angle="226.48" type="car" speed="0.00" pos="5.10" lane="-292_0" slope="0.00"/>