<?xml version="1.0" encoding="UTF-8"?>

<!-- generated on 08/03/20 17:31:30 by Eclipse SUMO Version 1.6.0
<configuration xmlns:xsi="http://www.w3.org/2001/XMLSchema-instance" xsi:noNamespaceSchemaLocation="http://sumo.dlr.de/xsd/sumoConfiguration.xsd">

    <input>
        <net-file value="C:\Users\gwu22\Sumo\2020-08-03-17-31-14\osm.net.xml"/>
        <route-files value="C:\Users\gwu22\Sumo\2020-08-03-17-31-14\trips.trips.xml"/>
        <additional-files value="C:\Users\gwu22\Sumo\2020-08-03-17-31-14\osm_stops.add.xml"/>
    </input>

    <output>
        <vehroute-output value="C:\Users\gwu22\Sumo\2020-08-03-17-31-14\vehroutes.xml"/>
        <stop-output value="C:\Users\gwu22\Sumo\2020-08-03-17-31-14\stopinfos.xml"/>
    </output>

    <time>
        <begin value="0"/>
    </time>

    <processing>
        <ignore-route-errors value="true"/>
    </processing>

    <routing>
        <device.rerouting.adaptation-interval value="0"/>
    </routing>

    <report>
        <error-log value="C:\Users\gwu22\Sumo\2020-08-03-17-31-14\trips.trips.xml.errorlog"/>
        <no-step-log value="true"/>
    </report>

</configuration>
-->

<routes xmlns:xsi="http://www.w3.org/2001/XMLSchema-instance" xsi:noNamespaceSchemaLocation="http://sumo.dlr.de/xsd/routes_file.xsd">
    <vehicle id="13_bus_250:0" type="pt_bus" depart="136.00" departLane="0" arrival="356.00">
        <route edges="315668795#0 315668795#5 58946894#0 58946894#4 58946895#0 58946895#3 -25907397 8735686#0 8735686#1 415305592 120692407 25907393 8732109 120692412 422100731 422100728 307242478 545955361 421882040 421882038 502060467"/>
        <stop busStop="5276537708" duration="30.00"/>
    </vehicle>

    <vehicle id="14_bus_250:1" type="pt_bus" depart="165.00" departLane="0" arrival="417.00">
        <route edges="530311417 422100729 422100730 121875317#0 545955361 421882040 421882038 502060467 121875305#0 121875305#2 121875305#3 502064054 8727623 481991303 415305590 8770380 25907396 8735689 556861289 -58946895#11 -58946895#2 -58946894#7 -58946894#2 -315668795#7 -315668795#4"/>
        <stop busStop="5276537708" duration="30.00"/>
    </vehicle>

    <vehicle id="2_bus_275:0" type="pt_bus" depart="15.00" departLane="0" arrival="491.00">
        <route edges="256888047#0 256888047#1 256876061#0 8742102#0 502285897 502287175#0 502287175#1 502287175#2 502287174#0 502287174#1 136467169#0 136467169#1 136467169#2 136467169#3 136467169#4 136467169#5 502045897 71137676 666005751 136467182#1 136467182#2 136467182#3 136467182#5 136467182#6 257654999#0 136467185#0 136467185#2 502355641 421881110#0 421881110#1 421881110#2 421881110#3 421881110#4 421881109#0 421881109#1 257655000#0 257655000#2 257655000#3 257655000#5 257572387 257572386 257572385 257572381#0 257572389#0 257572389#1 257572379 502366573"/>
        <stop busStop="5368243627" duration="30.00"/>
        <stop busStop="4928501574" duration="30.00"/>
        <stop busStop="5368228264" duration="30.00"/>
        <stop busStop="5368228552" duration="30.00"/>
        <stop busStop="62686029" duration="30.00"/>
    </vehicle>

    <vehicle id="3_bus_275:1" type="pt_bus" depart="17.00" departLane="0" arrival="542.00">
        <route edges="257572390#0 257572388#0 257572388#1 257572388#2 502366520 257572384 257572380#0 257572378#0 257572378#2 257572378#7 257572378#8 257572378#9 257572378#13 502355640#0 502355640#2 502355640#3 502355639#0 421881108#0 121875365#0 121875365#1 257654997#0 257654996 502355638#0 502355638#1 502355637#0 257654995#0 257654995#2 136467166#0 136467166#1 666005750#1 71137681 71137666 502287173 502287172 413573946#0 413573946#1 502287171 502287170 121875360#0 121875360#1 121875360#2 121875360#3 121875360#4 136467172#0 502287169#0 502287169#1 502287168 502287167#0 502287167#1 502287166"/>
        <stop busStop="5368237734" duration="30.00"/>
        <stop busStop="5368228265" duration="30.00"/>
        <stop busStop="5368243629" duration="30.00"/>
        <stop busStop="5368228263" duration="30.00"/>
        <stop busStop="5368243628" duration="30.00"/>
        <stop busStop="5368176218" duration="30.00"/>
    </vehicle>

    <vehicle id="5_bus_275:3" type="pt_bus" depart="52.00" departLane="0" arrival="594.00">
        <route edges="556491734#1 257682146#0 257682146#1 502059476 257682144#0 257682144#4 257682144#6 257682144#7 257682144#8 257682144#9 655284903 -514193886#1 -42473412 42473420 666005751 136467182#1 136467182#2 136467182#3 136467182#5 136467182#6 257654999#0 136467185#0 136467185#2 502355641 421881110#0 421881110#1 421881110#2 421881110#3 421881110#4 421881109#0 421881109#1 257655000#0 257655000#2 257655000#3 257655000#5 257572387 257572386 257572385 257572381#0 257572389#0 257572389#1 257572379 502366573"/>
        <stop busStop="5337879955" duration="30.00"/>
        <stop busStop="5368243624" duration="30.00"/>
        <stop busStop="5368243625" duration="30.00"/>
        <stop busStop="5368243627" duration="30.00"/>
        <stop busStop="4928501574" duration="30.00"/>
        <stop busStop="5368228264" duration="30.00"/>
        <stop busStop="5368228552" duration="30.00"/>
        <stop busStop="62686029" duration="30.00"/>
    </vehicle>

    <vehicle id="8_bus_275:6" type="pt_bus" depart="93.00" departLane="0" arrival="603.00">
        <route edges="120710537#0 120710537#1 508918992#1 508918992#2 508918991#0 508918991#1 368080348#0 368080348#1 503759605 25926160 421877288#0 442170280#0 442170280#1 136467168#0 136467168#1 136467168#3 136467168#4 136467168#5 136467168#8 136467168#9 136467168#10 136467168#13 136467168#14 136467168#15 -136467168#15 -136467168#14 -136467168#13 136467168#13 136467168#14 136467168#15 136467168#16 136467168#17 136467168#18 136467168#19 136467168#20 136467168#21 136467168#22 136467168#23 502287169#0 502287169#1 502287168 502287167#0 502287167#1 502287166"/>
        <stop busStop="5368228262" duration="30.00"/>
        <stop busStop="5368237733" duration="30.00"/>
        <stop busStop="5368228261" duration="30.00"/>
        <stop busStop="5368243621" duration="30.00"/>
        <stop busStop="-5368228551" duration="30.00"/>
        <stop busStop="5368176219" duration="30.00"/>
        <stop busStop="5368176218" duration="30.00"/>
    </vehicle>

    <vehicle id="7_bus_275:5" type="pt_bus" depart="58.00" departLane="0" arrival="608.00">
        <route edges="256888047#0 256888047#1 256876061#0 505590063 662445120 -662445120 -505590063 -127622484 -136467168#23 -136467168#22 -136467168#21 -136467168#20 -136467168#19 -136467168#18 -136467168#17 -136467168#16 -136467168#15 -136467168#14 -136467168#13 -136467168#12 -136467168#9 -136467168#8 -136467168#5 -136467168#4 -136467168#3 -136467168#2 -136467168#0 -442170280#1 -442170280#0 136467155#0 136467155#1 -503759605 -368080348#1 -368080348#0 -508918991#1 -508918991#0 -508918992#2 -508918992#1 -508918992#0 -120710537#0 -556491735 -725311450 556491734#0 556491734#1"/>
        <stop busStop="-5368228550" duration="30.00"/>
        <stop busStop="-5368176220" duration="30.00"/>
        <stop busStop="-5368228551" duration="30.00"/>
        <stop busStop="-5368243622" duration="30.00"/>
        <stop busStop="5368243623" duration="30.00"/>
        <stop busStop="-5368237529" duration="30.00"/>
        <stop busStop="5337879955" duration="30.00"/>
    </vehicle>

    <vehicle id="10_bus_275:8" type="pt_bus" depart="131.00" departLane="0" arrival="639.00">
        <route edges="256888047#0 256888047#1 256876061#0 8742102#0 502285897 502287175#0 502287175#1 502287175#2 502287174#0 502287174#1 136467169#0 136467169#1 136467169#2 136467169#3 136467169#4 136467169#5 502045897 71137676 666005751 136467182#1 136467182#2 136467182#3 136467182#5 136467182#6 257654999#0 136467185#0 136467185#2 502355641 421881110#0 421881110#1 421881110#2 421881110#3 421881110#4 421881109#0 421881109#1 257655000#0 257655000#2 257655000#3 257655000#5 257572387 257572386 257572385 257572381#0 257572389#0 257572389#1 257572379 502366573"/>
        <stop busStop="5368243627" duration="30.00"/>
        <stop busStop="4928501574" duration="30.00"/>
        <stop busStop="5368228264" duration="30.00"/>
        <stop busStop="5368228552" duration="30.00"/>
        <stop busStop="62686029" duration="30.00"/>
    </vehicle>

    <vehicle id="9_bus_275:7" type="pt_bus" depart="119.00" departLane="0" arrival="641.00">
        <route edges="257572390#0 257572388#0 257572388#1 257572388#2 502366520 257572384 257572380#0 257572378#0 257572378#2 257572378#7 257572378#8 257572378#9 257572378#13 502355640#0 502355640#2 502355640#3 502355639#0 421881108#0 121875365#0 121875365#1 257654997#0 257654996 502355638#0 502355638#1 502355637#0 257654995#0 257654995#2 136467166#0 136467166#1 666005750#1 71137681 71137666 502287173 502287172 413573946#0 413573946#1 502287171 502287170 121875360#0 121875360#1 121875360#2 121875360#3 121875360#4 136467172#0 502287169#0 502287169#1 502287168 502287167#0 502287167#1 502287166"/>
        <stop busStop="5368237734" duration="30.00"/>
        <stop busStop="5368228265" duration="30.00"/>
        <stop busStop="5368243629" duration="30.00"/>
        <stop busStop="5368228263" duration="30.00"/>
        <stop busStop="5368243628" duration="30.00"/>
        <stop busStop="5368176218" duration="30.00"/>
    </vehicle>

    <vehicle id="6_bus_275:4" type="pt_bus" depart="88.00" departLane="0" arrival="689.00">
        <route edges="556491734#1 257682146#0 257682146#1 502059476 257682144#0 257682144#4 257682144#6 257682144#7 257682144#8 257682144#9 655284903 -514193886#1 -42473412 42473420 666005751 136467182#1 136467182#2 136467182#3 136467182#5 136467182#6 257654999#0 136467185#0 136467185#2 502355641 421881110#0 421881110#1 421881110#2 421881110#3 421881110#4 421881109#0 421881109#1 257655000#0 257655000#2 257655000#3 257655000#5 257572387 257572386 257572385 257572381#0 257572389#0 257572389#1 257572379 502366573"/>
        <stop busStop="5337879955" duration="30.00"/>
        <stop busStop="5368243624" duration="30.00"/>
        <stop busStop="5368243625" duration="30.00"/>
        <stop busStop="5368243627" duration="30.00"/>
        <stop busStop="4928501574" duration="30.00"/>
        <stop busStop="5368228264" duration="30.00"/>
        <stop busStop="5368228552" duration="30.00"/>
        <stop busStop="62686029" duration="30.00"/>
    </vehicle>

    <vehicle id="35_bus_02:0" type="pt_bus" depart="484.00" departLane="0" arrival="853.00">
        <route edges="315668795#0 8735114#0 44120817 219472143#1 188261578 8757137 502104209 8770575 8730505#0 270520139 502104220#0 502104220#1 502104220#3 502336436#0 502336436#2 502336435#0 502336435#1 502342037 25907404#0 25907404#1 502342036 503772332 219710119#0 219710119#1 219710119#3 502342035 8728423"/>
        <stop busStop="6011190848" duration="30.00"/>
        <stop busStop="6011190846" duration="30.00"/>
        <stop busStop="6011190845" duration="30.00"/>
        <stop busStop="6011190844" duration="30.00"/>
    </vehicle>

    <vehicle id="30_bus_200:16" type="pt_bus" depart="418.00" departLane="0" arrival="860.00">
        <route edges="219710094 120710517#1 120710517#2 120710517#3 120710517#5 120710517#7 120710517#8 502342032 510666414#0 219710112 510666413 502336434#0 502336434#1 481972836#0 502104218 481972835 502104217 502104216 120692410 502104214 25907406#0 25907406#1 270520141#0 270520141#1 421879008 502064051 8729653 8770380 25907396 415305589 120692421 556861287"/>
        <stop busStop="5337879958" duration="30.00"/>
        <stop busStop="6011192205" duration="30.00"/>
        <stop busStop="6011192206" duration="30.00"/>
        <stop busStop="6011192207" duration="30.00"/>
        <stop busStop="6011190847" duration="30.00"/>
    </vehicle>

    <vehicle id="31_bus_200:17" type="pt_bus" depart="424.00" departLane="0" arrival="905.00">
        <route edges="219710094 120710517#1 120710517#2 120710517#3 120710517#5 120710517#7 120710517#8 502342032 510666414#0 219710112 510666413 502336434#0 502336434#1 481972836#0 502104218 481972835 502104217 502104216 120692410 502104214 25907406#0 25907406#1 270520141#0 270520141#1 421879008 502064051 8729653 8770380 25907396 415305589 120692421 556861287"/>
        <stop busStop="5337879958" duration="30.00"/>
        <stop busStop="6011192205" duration="30.00"/>
        <stop busStop="6011192206" duration="30.00"/>
        <stop busStop="6011192207" duration="30.00"/>
        <stop busStop="6011190847" duration="30.00"/>
    </vehicle>

    <vehicle id="36_bus_02:1" type="pt_bus" depart="485.00" departLane="0" arrival="1012.00">
        <route edges="219710094 120710517#1 120710517#2 120710517#3 120710517#5 120710517#7 120710517#8 502342032 510666414#0 219710112 510666413 502336434#0 502336434#1 481972836#0 502104218 481972835 502104217 502104216 120692410 502104214 25907406#0 25907406#1 270520141#0 270520141#1 421879008 502064051 8729653 8770380 25907396 8735689 556861289 -58946895#11 -58946895#2 -58946894#7 -58946894#2 -315668795#7 -315668795#4"/>
        <stop busStop="5337879958" duration="30.00"/>
        <stop busStop="6011192205" duration="30.00"/>
        <stop busStop="6011192206" duration="30.00"/>
        <stop busStop="6011192207" duration="30.00"/>
        <stop busStop="6011190847" duration="30.00"/>
    </vehicle>

    <vehicle id="4_bus_275:2" type="pt_bus" depart="27.00" departLane="0" arrival="1072.00">
        <route edges="256888047#0 256888047#1 256876061#0 505590063 662445120 -662445120 -505590063 -127622484 -136467168#23 -136467168#22 -136467168#21 -136467168#20 -136467168#19 -136467168#18 -136467168#17 -136467168#16 -136467168#15 -136467168#14 -136467168#13 -136467168#12 -136467168#9 -136467168#8 -136467168#5 -136467168#4 -136467168#3 -136467168#2 -136467168#0 -442170280#1 -442170280#0 136467155#0 136467155#1 -503759605 -368080348#1 -368080348#0 -508918991#1 -508918991#0 -508918992#2 -508918992#1 -508918992#0 -120710537#0 -556491735 -725311450 556491734#0 556491734#1 257682146#0 257682146#1 502059476 257682144#0 257682144#4 257682144#6 257682144#7 257682144#8 257682144#9 655284903 -514193886#1 -42473412 42473420 666005751 136467182#1 136467182#2 136467182#3 136467182#5 136467182#6 257654999#0 136467185#0 136467185#2 502355641 421881110#0 421881110#1 421881110#2 421881110#3 421881110#4 421881109#0 421881109#1 257655000#0 257655000#2 257655000#3 257655000#5 257572387 257572386 257572385 257572381#0 257572389#0 257572389#1 257572379 502366573"/>
        <stop busStop="-5368228550" duration="30.00"/>
        <stop busStop="-5368176220" duration="30.00"/>
        <stop busStop="-5368228551" duration="30.00"/>
        <stop busStop="-5368243622" duration="30.00"/>
        <stop busStop="5368243623" duration="30.00"/>
        <stop busStop="-5368237529" duration="30.00"/>
        <stop busStop="5337879955" duration="30.00"/>
        <stop busStop="5368243624" duration="30.00"/>
        <stop busStop="5368243625" duration="30.00"/>
        <stop busStop="5368243627" duration="30.00"/>
        <stop busStop="4928501574" duration="30.00"/>
        <stop busStop="5368228264" duration="30.00"/>
        <stop busStop="5368228552" duration="30.00"/>
        <stop busStop="62686029" duration="30.00"/>
    </vehicle>

    <vehicle id="11_bus_275:9" type="pt_bus" depart="132.00" departLane="0" arrival="1177.00">
        <route edges="257572390#0 257572388#0 257572388#1 257572388#2 502366520 257572384 257572380#0 257572378#0 257572378#2 257572378#7 257572378#8 257572378#9 257572378#13 502355640#0 502355640#2 502355640#3 502355639#0 421881108#0 121875365#0 121875365#1 257654997#0 257654996 502355638#0 502355638#1 502355637#0 257654995#0 257654995#2 42473419 -42473416#3 -42473416#2 270520143#0 270520143#1 270520143#3 270520143#4 270520143#6 270520143#7 270520143#8 257682145 421883125#0 503759601#0 556491735 120710537#0 120710537#1 508918992#1 508918992#2 508918991#0 508918991#1 368080348#0 368080348#1 503759605 25926160 421877288#0 442170280#0 442170280#1 136467168#0 136467168#1 136467168#3 136467168#4 136467168#5 136467168#8 136467168#9 136467168#10 136467168#13 136467168#14 136467168#15 -136467168#15 -136467168#14 -136467168#13 136467168#13 136467168#14 136467168#15 136467168#16 136467168#17 136467168#18 136467168#19 136467168#20 136467168#21 136467168#22 136467168#23 502287169#0 502287169#1 502287168 502287167#0 502287167#1 502287166"/>
        <stop busStop="5368237734" duration="30.00"/>
        <stop busStop="5368228265" duration="30.00"/>
        <stop busStop="5368243629" duration="30.00"/>
        <stop busStop="5368228263" duration="30.00"/>
        <stop busStop="5368243628" duration="30.00"/>
        <stop busStop="5368243626" duration="30.00"/>
        <stop busStop="5368228262" duration="30.00"/>
        <stop busStop="5368237733" duration="30.00"/>
        <stop busStop="5368228261" duration="30.00"/>
        <stop busStop="5368243621" duration="30.00"/>
        <stop busStop="-5368228551" duration="30.00"/>
        <stop busStop="5368176219" duration="30.00"/>
        <stop busStop="5368176218" duration="30.00"/>
    </vehicle>

    <vehicle id="12_bus_275:10" type="pt_bus" depart="136.00" departLane="0" arrival="1214.00">
        <route edges="256888047#0 256888047#1 256876061#0 505590063 662445120 -662445120 -505590063 -127622484 -136467168#23 -136467168#22 -136467168#21 -136467168#20 -136467168#19 -136467168#18 -136467168#17 -136467168#16 -136467168#15 -136467168#14 -136467168#13 -136467168#12 -136467168#9 -136467168#8 -136467168#5 -136467168#4 -136467168#3 -136467168#2 -136467168#0 -442170280#1 -442170280#0 136467155#0 136467155#1 -503759605 -368080348#1 -368080348#0 -508918991#1 -508918991#0 -508918992#2 -508918992#1 -508918992#0 -120710537#0 -556491735 -725311450 556491734#0 556491734#1 257682146#0 257682146#1 502059476 257682144#0 257682144#4 257682144#6 257682144#7 257682144#8 257682144#9 655284903 -514193886#1 -42473412 42473420 666005751 136467182#1 136467182#2 136467182#3 136467182#5 136467182#6 257654999#0 136467185#0 136467185#2 502355641 421881110#0 421881110#1 421881110#2 421881110#3 421881110#4 421881109#0 421881109#1 257655000#0 257655000#2 257655000#3 257655000#5 257572387 257572386 257572385 257572381#0 257572389#0 257572389#1 257572379 502366573"/>
        <stop busStop="-5368228550" duration="30.00"/>
        <stop busStop="-5368176220" duration="30.00"/>
        <stop busStop="-5368228551" duration="30.00"/>
        <stop busStop="-5368243622" duration="30.00"/>
        <stop busStop="5368243623" duration="30.00"/>
        <stop busStop="-5368237529" duration="30.00"/>
        <stop busStop="5337879955" duration="30.00"/>
        <stop busStop="5368243624" duration="30.00"/>
        <stop busStop="5368243625" duration="30.00"/>
        <stop busStop="5368243627" duration="30.00"/>
        <stop busStop="4928501574" duration="30.00"/>
        <stop busStop="5368228264" duration="30.00"/>
        <stop busStop="5368228552" duration="30.00"/>
        <stop busStop="62686029" duration="30.00"/>
    </vehicle>

    <vehicle id="38_bus_261:1" type="pt_bus" depart="508.00" departLane="1" arrival="1262.00">
        <route edges="257679971#0 257679971#1 257679971#5 257679971#6 257679971#7 257679971#8 257679971#12 257679971#13 257679971#14 502039201 421883128 270520143#0 270520143#1 270520143#3 270520143#4 270520143#6 270520143#7 270520143#8 257682145 421883125#0 257682147#0 257682147#1 257682147#2 136467206 121875318#0 121875318#1 121875318#2 502059478 495156114 421883126 421883127 121875315#0 121875315#1 415270477#0 415270477#2 415270477#3 415270477#4 415270477#5 415270477#8 415270476 503562753 421882056#0 421882063#0 503562752 415271183#0 415271183#1 503562751 421882049#0 421882049#1 421882072#0 421882072#1 503562750 503562747 25926158#0 421882085#0 421882085#1 415271638#0 415271638#1 421882065 503563240 503563237 421882045#0 421882045#1 421882052#0 120692408 421882037 421882041#0 421882059 503564344#0 503564343 415274090 421882068 421882039 503564342 8766210 530311417 422100729 422100730 121875317#0 545955361 421882040 421882038 502060467 121875305#0 121875305#2 121875305#3 120692413 120692420 25907399#1 502064053 502064052 270520139 502104220#0 502104220#1 502104220#3 502336436#0 502336436#2 502336435#0 502336435#1 502342037 25907404#0 25907404#1 502342036 503772332 219710119#0 219710119#1 219710119#3 502342035 8728423"/>
        <stop busStop="5337887340" duration="30.00"/>
        <stop busStop="5337879957" duration="30.00"/>
        <stop busStop="5276537708" duration="30.00"/>
    </vehicle>

    <vehicle id="15_bus_200:1" type="pt_bus" depart="201.00" departLane="0" arrival="1383.00">
        <route edges="257679971#0 257679971#1 257679971#5 257679971#6 257679971#7 257679971#8 257679971#12 257679971#13 257679971#14 502039201 421883128 270520143#0 270520143#1 270520143#3 270520143#4 270520143#6 270520143#7 270520143#8 257682145 421883125#0 257682147#0 257682147#1 257682147#2 136467206 121875318#0 121875318#1 121875318#2 502059478 495156114 421883126 421883127 121875315#0 121875315#1 415270477#0 415270477#2 415270477#3 415270477#4 415270477#5 415270477#8 415270476 503562753 421882056#0 421882063#0 503562752 415271183#0 415271183#1 503562751 421882049#0 421882049#1 421882072#0 421882072#1 503562750 503562747 25926158#0 421882085#0 421882085#1 415271638#0 415271638#1 421882065 503563240 503563237 421882045#0 421882045#1 421882052#0 120692408 421882037 421882041#0 421882059 503564344#0 503564343 415274090 421882068 421882039 503564342 8766210 530311417 422100729 422100730 121875317#0 545955361 421882040 421882038 502060467 121875305#0 121875305#2 121875305#3 502064054 8727623 481991303 415305590 8770380 25907396 415305589 120692421 556861287"/>
        <stop busStop="6011192214" duration="30.00"/>
        <stop busStop="6011192213" duration="30.00"/>
        <stop busStop="6011190860" duration="30.00"/>
        <stop busStop="5368243626" duration="30.00"/>
        <stop busStop="6011190858" duration="30.00"/>
        <stop busStop="6011190857" duration="30.00"/>
        <stop busStop="5337887340" duration="30.00"/>
        <stop busStop="6011192211" duration="30.00"/>
        <stop busStop="6011191987" duration="30.00"/>
        <stop busStop="6011190854" duration="30.00"/>
        <stop busStop="6011192210" duration="30.00"/>
        <stop busStop="5337879957" duration="30.00"/>
        <stop busStop="5364996721" duration="30.00"/>
        <stop busStop="5364997032" duration="30.00"/>
        <stop busStop="6011190849" duration="30.00"/>
    </vehicle>

    <vehicle id="42_bus_261:3" type="pt_bus" depart="583.00" departLane="0" arrival="1411.00">
        <route edges="257679971#0 257679971#1 257679971#5 257679971#6 257679971#7 257679971#8 257679971#12 257679971#13 257679971#14 502039201 421883128 270520143#0 270520143#1 270520143#3 270520143#4 270520143#6 270520143#7 270520143#8 257682145 421883125#0 257682147#0 257682147#1 257682147#2 136467206 121875318#0 121875318#1 121875318#2 502059478 495156114 421883126 421883127 121875315#0 121875315#1 415270477#0 415270477#2 415270477#3 415270477#4 415270477#5 415270477#8 415270476 503562753 421882056#0 421882063#0 503562752 415271183#0 415271183#1 503562751 421882049#0 421882049#1 421882072#0 421882072#1 503562750 503562747 25926158#0 421882085#0 421882085#1 415271638#0 415271638#1 421882065 503563240 503563237 421882045#0 421882045#1 421882052#0 120692408 421882037 421882041#0 421882059 503564344#0 503564343 415274090 421882068 421882039 503564342 8766210 530311417 422100729 422100730 121875317#0 545955361 421882040 421882038 502060467 121875305#0 121875305#2 121875305#3 120692413 120692420 25907399#1 502064053 502064052 270520139 502104220#0 502104220#1 502104220#3 502336436#0 502336436#2 502336435#0 502336435#1 502342037 25907404#0 25907404#1 502342036 503772332 219710119#0 219710119#1 219710119#3 502342035 8728423"/>
        <stop busStop="5337887340" duration="30.00"/>
        <stop busStop="5337879957" duration="30.00"/>
        <stop busStop="5276537708" duration="30.00"/>
    </vehicle>

    <vehicle id="0_bus_200:0" type="pt_bus" depart="3.00" departLane="0" arrival="1520.00">
        <route edges="257679971#0 257679971#1 257679971#5 257679971#6 257679971#7 257679971#8 257679971#12 257679971#13 257679971#14 502039201 421883128 270520143#0 270520143#1 270520143#3 270520143#4 270520143#6 270520143#7 270520143#8 257682145 421883125#0 257682147#0 257682147#1 257682147#2 136467206 121875318#0 121875318#1 121875318#2 502059478 495156114 421883126 421883127 121875315#0 121875315#1 415270477#0 415270477#2 415270477#3 415270477#4 415270477#5 415270477#8 415270476 503562753 421882056#0 421882063#0 503562752 415271183#0 415271183#1 503562751 421882049#0 421882049#1 421882072#0 421882072#1 503562750 503562747 25926158#0 421882085#0 421882085#1 415271638#0 415271638#1 421882065 503563240 503563237 421882045#0 421882045#1 421882052#0 120692408 421882037 421882041#0 421882059 503564344#0 503564343 415274090 421882068 421882039 503564342 8766210 530311417 422100729 422100730 121875317#0 545955361 421882040 421882038 502060467 121875305#0 121875305#2 121875305#3 120692413 120692420 25907399#1 502064053 502064052 270520139 502104220#0 502104220#1 502104220#3 502336436#0 502336436#2 502336435#0 502336435#1 502342037 25907404#0 25907404#1 502342036 503772332 219710119#0 219710119#1 219710119#3 502342035 8728423"/>
        <stop busStop="6011192214" duration="30.00"/>
        <stop busStop="6011192213" duration="30.00"/>
        <stop busStop="6011190860" duration="30.00"/>
        <stop busStop="5368243626" duration="30.00"/>
        <stop busStop="6011190858" duration="30.00"/>
        <stop busStop="6011190857" duration="30.00"/>
        <stop busStop="5337887340" duration="30.00"/>
        <stop busStop="6011192211" duration="30.00"/>
        <stop busStop="6011191987" duration="30.00"/>
        <stop busStop="6011190854" duration="30.00"/>
        <stop busStop="6011192210" duration="30.00"/>
        <stop busStop="5337879957" duration="30.00"/>
        <stop busStop="5364996721" duration="30.00"/>
        <stop busStop="5364997032" duration="30.00"/>
        <stop busStop="6011190849" duration="30.00"/>
        <stop busStop="6011190848" duration="30.00"/>
        <stop busStop="6011190846" duration="30.00"/>
        <stop busStop="6011190845" duration="30.00"/>
        <stop busStop="6011190844" duration="30.00"/>
    </vehicle>

    <vehicle id="26_bus_200:12" type="pt_bus" depart="371.00" departLane="1" arrival="1545.00">
        <route edges="421870800 219472143#0 219472143#1 188261578 8728766 270520141#0 270520141#1 421879008 120692418 481991810 415305591 120692412 422100731 422100728 121875304#0 121875304#1 545955365 508953132 -495164787#1 -421882039 -421882068 -415274090 -503564343 -503564344#1 -421882059 -421882041#1 -421882037 -120692408 -421882052#1 -421882045#1 -421882045#0 -503563237 -503563240 -421882065 -415271638#1 -415271638#0 -421882085#1 -421882085#0 -25926158#1 -503562747 -503562750 -421882072#1 -421882072#0 -421882049#1 -421882049#0 -503562751 -415271182 -415271183#0 -503562752 -421882063#1 -421882056#1 -503562753 -415270476 -415270477#8 -415270477#7 -415270477#4 -415270477#3 -415270477#2 -415270477#1 8766193 502059477 121875308 257678095 257678092#0 136467189 421883129#0 556491734#0 556491734#1 257682146#0 257682146#1 502059476 257682144#0 257682144#4 257682144#6 257682144#7 257682144#8 257682144#9 655284903 136467176#0 136467176#1 136467176#2 136467176#4 136467176#5 136467176#6 136467176#9 136467176#10 136467176#12 136467176#13"/>
        <stop busStop="6011190850" duration="30.00"/>
        <stop busStop="-5364985323" duration="30.00"/>
        <stop busStop="-6011190851" duration="30.00"/>
        <stop busStop="-6011190852" duration="30.00"/>
        <stop busStop="-5337879956" duration="30.00"/>
        <stop busStop="-6011190853" duration="30.00"/>
        <stop busStop="-6011190855" duration="30.00"/>
        <stop busStop="-6011190856" duration="30.00"/>
        <stop busStop="6011192212" duration="30.00"/>
        <stop busStop="5337879955" duration="30.00"/>
        <stop busStop="5368243624" duration="30.00"/>
        <stop busStop="5368243625" duration="30.00"/>
        <stop busStop="6011190859" duration="30.00"/>
        <stop busStop="6011190861" duration="30.00"/>
        <stop busStop="6011192215" duration="30.00"/>
    </vehicle>

    <vehicle id="37_bus_261:0" type="pt_bus" depart="497.00" departLane="0" arrival="1577.00">
        <route edges="219710094 120710517#1 120710517#2 120710517#3 120710517#5 120710517#7 120710517#8 502342032 510666414#0 219710112 510666413 502336434#0 502336434#1 481972836#0 502104218 481972835 502104217 502104216 120692410 502104214 25907406#0 25907406#1 270520141#0 270520141#1 421879008 120692418 481991810 415305591 120692412 422100731 422100728 307242478 545955361 421882040 421882038 502060467 121875305#0 121875305#2 121875305#3 120692413 120692420 25907399#1 502064053 415510600 25907406#1 270520141#0 270520141#1 421879008 120692418 481991810 415305591 120692412 422100731 422100728 121875304#0 121875304#1 545955365 508953132 -495164787#1 -421882039 -421882068 -415274090 -503564343 -503564344#1 -421882059 -421882041#1 -421882037 -120692408 -421882052#1 -421882045#1 -421882045#0 -503563237 -503563240 -421882065 -415271638#1 -415271638#0 -421882085#1 -421882085#0 -25926158#1 -503562747 -503562750 -421882072#1 -421882072#0 -421882049#1 -421882049#0 -503562751 -415271182 -415271183#0 -503562752 -421882063#1 -421882056#1 -503562753 -415270476 -415270477#8 -415270477#7 -415270477#4 -415270477#3 -415270477#2 -415270477#1 8766193 502059477 121875308 257678095 257678092#0 136467189 421883129#0 556491734#0 556491734#1 257682146#0 257682146#1 502059476 257682144#0 257682144#4 257682144#6 257682144#7 257682144#8 257682144#9 655284903 136467176#0 136467176#1 136467176#2 136467176#4 136467176#5 136467176#6 136467176#9 136467176#10 136467176#12 136467176#13"/>