<?xml version="1.0" encoding="UTF-8"?>

<!-- generated on 2024-12-03 11:29:12 by Eclipse SUMO GUI Version 1.21.0
<sumoConfiguration xmlns:xsi="http://www.w3.org/2001/XMLSchema-instance" xsi:noNamespaceSchemaLocation="http://sumo.dlr.de/xsd/sumoConfiguration.xsd">

    <input>
        <net-file value=".\chatt.net.xml"/>
        <route-files value=".\chatt.rou.xml"/>
        <additional-files value=".\updated_signal.xml,.\Edge.add.xml"/>
    </input>

    <output>
        <netstate-dump value="chatt.xml"/>
        <netstate-dump.precision value="10"/>
        <fcd-output value=".\fcd.xml"/>
        <edgedata-output value=".\EdgeData.xml"/>
    </output>

    <time>
        <begin value="28985"/>
        <end value="33000"/>
        <step-length value="1"/>
    </time>

    <processing>
        <lateral-resolution value="0.8"/>
    </processing>

    <report>
        <no-warnings value="true"/>
        <no-step-log value="true"/>
    </report>

    <traci_server>
        <remote-port value="1337"/>
        <num-clients value="2"/>
    </traci_server>

    <random_number>
        <seed value="101"/>
    </random_number>

    <gui_only>
        <start value="t"/>
    </gui_only>

</sumoConfiguration>
-->

<fcd-export xmlns:xsi="http://www.w3.org/2001/XMLSchema-instance" xsi:noNamespaceSchemaLocation="http://sumo.dlr.de/xsd/fcd_file.xsd">
    <timestep time="28985.00">
        <vehicle id="ego" x="1379.84" y="227.02" angle="292.11" type="DEFAULT_VEHTYPE" speed="0.10" pos="1.00" lane="-2801_0" slope="0.00"/>
    </timestep>
    <timestep time="28986.00">
        <vehicle id="14.20" x="957.71" y="417.91" angle="192.70" type="car" speed="0.00" pos="5.10" lane="-330_0" slope="0.00"/>
        <vehicle id="ego" x="1376.36" y="228.44" angle="292.11" type="DEFAULT_VEHTYPE@ego" speed="3.80" pos="4.80" lane="-2801_0" slope="0.00"/>
    </timestep>
    <timestep time="28987.00">
        <vehicle id="14.20" x="957.54" y="417.16" angle="192.70" type="car" speed="2.04" pos="7.14" lane="-330_0" slope="0.00"/>
        <vehicle id="15.35" x="663.06" y="878.82" angle="226.48" type="car" speed="0.00" pos="5.10" lane="-292_0" slope="0.00"/>
        <vehicle id="3.6" x="327.11" y="784.12" angle="251.74" type="car" speed="0.00" pos="5.10" lane="-324_0" slope="0.00"/>
        <vehicle id="ego" x="1371.46" y="230.43" angle="292.11" type="DEFAULT_VEHTYPE@ego" speed="5.35" pos="10.16" lane="-2801_0" slope="0.00"/>
    </timestep>
    <timestep time="28988.00">
        <vehicle id="12.21" x="662.58" y="496.37" angle="23.06" type="car" speed="0.00" pos="5.10" lane="-320_0" slope="0.00"/>
        <vehicle id="14.20" x="957.18" y="415.58" angle="192.70" type="car" speed="4.30" pos="11.44" lane="-330_0" slope="0.00"/>
        <vehicle id="15.35" x="661.94" y="877.76" angle="226.48" type="car" speed="1.63" pos="6.73" lane="-292_0" slope="0.00"/>
        <vehicle id="16.40" x="162.87" y="226.75" angle="50.81" type="car" speed="0.00" pos="5.10" lane="-310_0" slope="0.00"/>
        <vehicle id="3.6" x="325.71" y="783.65" angle="251.74" type="car" speed="1.60" pos="6.70" lane="-324_0" slope="0.00"/>
        <vehicle id="6.15" x="1015.57" y="426.69" angle="202.51" type="car" speed="0.00" pos="5.10" lane="-326_0" slope="0.00"/>
        <vehicle id="ego" x="1365.37" y="232.90" angle="292.11" type="DEFAULT_VEHTYPE@ego" speed="6.64" pos="16.80" lane="-2801_0" slope="0.00"/>
    </timestep>
    <timestep time="28989.00">
        <vehicle id="12.21" x="663.19" y="497.79" angle="23.06" type="car" speed="2.36" pos="7.46" lane="-320_0" slope="0.00"/>
        <vehicle id="14.20" x="948.79" y="410.63" angle="241.85" type="car" speed="6.67" pos="1.56" lane="-327_0" slope="0.00"/>
        <vehicle id="15.35" x="659.13" y="875.10" angle="226.48" type="car" speed="4.09" pos="10.81" lane="-292_0" slope="0.00"/>
        <vehicle id="16.40" x="163.99" y="227.67" angle="50.81" type="car" speed="1.49" pos="6.59" lane="-310_0" slope="0.00"/>
        <vehicle id="3.6" x="322.23" y="782.51" angle="251.74" type="car" speed="3.97" pos="10.67" lane="-324_0" slope="0.00"/>
        <vehicle id="4.39" x="1376.09" y="228.55" angle="292.11" type="car" speed="0.00" pos="5.10" lane="-2801_0" slope="0.00"/>
        <vehicle id="6.15" x="1016.03" y="425.15" angle="190.81" type="car" speed="1.75" pos="6.85" lane="-326_0" slope="0.00"/>
        <vehicle id="ego" x="1358.93" y="235.52" angle="292.11" type="DEFAULT_VEHTYPE@ego" speed="7.03" pos="23.83" lane="-2801_0" slope="0.00"/>
    </timestep>
    <timestep time="28990.00">
        <vehicle id="11.20" x="207.06" y="523.33" angle="88.59" type="car" speed="0.00" pos="5.10" lane="-331_0" slope="0.00"/>
        <vehicle id="12.21" x="664.15" y="500.04" angle="23.06" type="car" speed="3.74" pos="11.21" lane="-320_0" slope="0.00"/>
        <vehicle id="14.20" x="942.59" y="413.23" angle="292.74" type="car" speed="8.25" pos="9.81" lane="-327_0" slope="0.00"/>
        <vehicle id="15.35" x="654.54" y="870.74" angle="226.48" type="car" speed="6.69" pos="17.50" lane="-292_0" slope="0.00"/>
        <vehicle id="16.40" x="166.95" y="230.08" angle="50.81" type="car" speed="3.93" pos="10.52" lane="-310_0" slope="0.00"/>
        <vehicle id="3.6" x="316.99" y="779.72" angle="242.78" type="car" speed="6.34" pos="17.02" lane="-324_0" slope="0.00"/>
        <vehicle id="4.39" x="1374.22" y="229.31" angle="292.11" type="car" speed="2.04" pos="7.14" lane="-2801_0" slope="0.00"/>
        <vehicle id="6.15" x="1016.18" y="422.84" angle="188.02" type="car" speed="3.88" pos="10.73" lane="-326_1" slope="0.00"/>
        <vehicle id="ego" x="1351.16" y="238.67" angle="292.11" type="DEFAULT_VEHTYPE@ego" speed="8.48" pos="32.31" lane="-2801_0" slope="0.00"/>
    </timestep>
    <timestep time="28991.00">
        <vehicle id="11.20" x="209.20" y="523.05" angle="94.81" type="car" speed="2.21" pos="7.31" lane="-331_0" slope="0.00"/>
        <vehicle id="12.21" x="665.62" y="503.50" angle="23.06" type="car" speed="5.76" pos="16.96" lane="-320_0" slope="0.00"/>
        <vehicle id="14.20" x="934.66" y="416.56" angle="292.83" type="car" speed="10.57" pos="20.38" lane="-327_0" slope="0.00"/>
        <vehicle id="15.35" x="648.43" y="864.93" angle="226.48" type="car" speed="8.90" pos="26.40" lane="-292_0" slope="0.00"/>
        <vehicle id="16.40" x="171.80" y="234.03" angle="50.81" type="car" speed="6.44" pos="16.96" lane="-310_0" slope="0.00"/>
        <vehicle id="2.26" x="239.85" y="693.43" angle="113.16" type="car" speed="0.00" pos="5.10" lane="-312_0" slope="0.00"/>
        <vehicle id="3.6" x="311.14" y="776.74" angle="244.30" type="car" speed="7.67" pos="24.68" lane="-324_1" slope="0.00"/>
        <vehicle id="4.39" x="1370.19" y="230.94" angle="292.11" type="car" speed="4.40" pos="11.54" lane="-2801_0" slope="0.00"/>
        <vehicle id="6.15" x="1014.99" y="418.52" angle="197.07" type="car" speed="6.07" pos="16.80" lane="-326_1" slope="0.00"/>
        <vehicle id="ego" x="1341.27" y="242.69" angle="292.11" type="DEFAULT_VEHTYPE@ego" speed="10.80" pos="43.11" lane="-2801_0" slope="0.00"/>
    </timestep>
    <timestep time="28992.00">
        <vehicle id="11.20" x="212.55" y="522.39" angle="100.24" type="car" speed="3.51" pos="10.83" lane="-331_0" slope="0.00"/>
        <vehicle id="12.21" x="675.14" y="511.05" angle="55.80" type="car" speed="7.68" pos="0.24" lane="-3221_0" slope="0.00"/>
        <vehicle id="14.20" x="924.98" y="420.64" angle="292.98" type="car" speed="12.91" pos="33.29" lane="-327_0" slope="0.00"/>
        <vehicle id="15.35" x="640.53" y="857.43" angle="226.48" type="car" speed="11.50" pos="37.90" lane="-292_0" slope="0.00"/>
        <vehicle id="15.36" x="663.06" y="878.82" angle="226.48" type="car" speed="0.00" pos="5.10" lane="-292_0" slope="0.00"/>
        <vehicle id="16.40" x="178.44" y="239.51" angle="50.18" type="car" speed="8.87" pos="25.83" lane="-310_0" slope="0.00"/>
        <vehicle id="2.26" x="240.66" y="693.08" angle="113.16" type="car" speed="1.72" pos="6.82" lane="-312_0" slope="0.00"/>
        <vehicle id="3.6" x="303.83" y="772.93" angle="241.29" type="car" speed="9.03" pos="33.71" lane="-324_1" slope="0.00"/>
        <vehicle id="4.39" x="1363.89" y="233.50" angle="292.11" type="car" speed="6.88" pos="18.42" lane="-2801_0" slope="0.00"/>
        <vehicle id="6.15" x="1013.64" y="413.16" angle="195.97" type="car" speed="7.50" pos="24.30" lane="-326_1" slope="0.00"/>
        <vehicle id="ego" x="1330.72" y="246.98" angle="292.11" type="DEFAULT_VEHTYPE@ego" speed="11.52" pos="54.64" lane="-2801_0" slope="0.00"/>
    </timestep>
    <timestep time="28993.00">
        <vehicle id="10.6" x="895.40" y="516.91" angle="201.69" type="car" speed="0.00" pos="5.10" lane="-318_0" slope="0.00"/>
        <vehicle id="11.20" x="217.79" y="520.95" angle="105.60" type="car" speed="5.59" pos="16.41" lane="-331_0" slope="0.00"/>
        <vehicle id="12.21" x="683.47" y="507.63" angle="112.41" type="car" speed="9.53" pos="9.77" lane="-3221_0" slope="0.00"/>
        <vehicle id="13.21" x="817.31" y="434.44" angle="346.51" type="car" speed="0.00" pos="5.10" lane="-316_0" slope="0.00"/>
        <vehicle id="14.20" x="913.58" y="425.44" angle="292.82" type="car" speed="15.19" pos="48.48" lane="-327_0" slope="0.00"/>
        <vehicle id="15.35" x="631.60" y="849.08" angle="227.29" type="car" speed="12.91" pos="50.80" lane="-292_0" slope="0.00"/>
        <vehicle id="15.36" x="661.56" y="877.40" angle="226.48" type="car" speed="2.18" pos="7.28" lane="-292_0" slope="0.00"/>
        <vehicle id="16.40" x="185.82" y="246.28" angle="46.75" type="car" speed="10.31" pos="36.14" lane="-310_0" slope="0.00"/>
        <vehicle id="16.41" x="162.87" y="226.75" angle="50.81" type="car" speed="0.00" pos="5.10" lane="-310_0" slope="0.00"/>
        <vehicle id="2.26" x="242.48" y="692.30" angle="113.16" type="car" speed="3.84" pos="10.66" lane="-312_0" slope="0.00"/>
        <vehicle id="3.6" x="295.14" y="767.78" angle="235.95" type="car" speed="11.24" pos="44.95" lane="-324_1" slope="0.00"/>
        <vehicle id="4.39" x="1356.39" y="236.55" angle="292.11" type="car" speed="8.18" pos="26.61" lane="-2801_0" slope="0.00"/>
        <vehicle id="5.21" x="858.15" y="1.52" angle="22.97" type="car" speed="0.00" pos="5.10" lane="-308_0" slope="0.00"/>
        <vehicle id="6.15" x="1011.20" y="406.76" angle="200.74" type="car" speed="9.37" pos="33.68" lane="-326_1" slope="0.00"/>
        <vehicle id="9.3" x="863.71" y="416.14" angle="23.42" type="car" speed="0.00" pos="5.10" lane="-317_0" slope="0.00"/>
        <vehicle id="ego" x="1318.50" y="251.94" angle="292.11" type="DEFAULT_VEHTYPE@ego" speed="13.34" pos="67.97" lane="-2801_0" slope="0.00"/>
    </timestep>
    <timestep time="28994.00">
        <vehicle id="10.6" x="894.88" y="515.60" angle="201.69" type="car" speed="1.74" pos="6.84" lane="-318_0" slope="0.00"/>
        <vehicle id="11.20" x="224.71" y="518.15" angle="113.31" type="car" speed="7.67" pos="24.08" lane="-331_0" slope="0.00"/>
        <vehicle id="12.21" x="693.88" y="503.34" angle="112.41" type="car" speed="11.92" pos="21.69" lane="-3221_0" slope="0.00"/>
        <vehicle id="13.21" x="817.37" y="435.13" angle="353.42" type="car" speed="1.58" pos="6.68" lane="-316_0" slope="0.00"/>
        <vehicle id="14.20" x="900.88" y="430.79" angle="292.87" type="car" speed="16.93" pos="65.41" lane="-327_0" slope="0.00"/>
        <vehicle id="15.35" x="621.52" y="838.70" angle="224.77" type="car" speed="15.23" pos="66.03" lane="-292_0" slope="0.00"/>
        <vehicle id="15.36" x="658.35" y="874.36" angle="226.48" type="car" speed="4.66" pos="11.95" lane="-292_0" slope="0.00"/>
        <vehicle id="16.40" x="193.82" y="254.38" angle="43.62" type="car" speed="11.73" pos="47.87" lane="-310_0" slope="0.00"/>
        <vehicle id="16.41" x="164.40" y="228.00" angle="50.81" type="car" speed="2.03" pos="7.13" lane="-310_0" slope="0.00"/>
        <vehicle id="2.26" x="245.21" y="691.13" angle="113.16" type="car" speed="5.78" pos="16.44" lane="-312_0" slope="0.00"/>
        <vehicle id="3.6" x="286.96" y="759.61" angle="222.89" type="car" speed="12.87" pos="57.83" lane="-324_1" slope="0.00"/>
        <vehicle id="4.39" x="1347.52" y="240.15" angle="292.11" type="car" speed="9.68" pos="36.29" lane="-2801_0" slope="0.00"/>
        <vehicle id="4.40" x="1376.09" y="228.55" angle="292.11" type="car" speed="0.00" pos="5.10" lane="-2801_0" slope="0.00"/>
        <vehicle id="5.21" x="859.01" y="3.55" angle="22.97" type="car" speed="2.30" pos="7.40" lane="-308_0" slope="0.00"/>
        <vehicle id="6.15" x="1008.52" y="399.66" angle="200.63" type="car" speed="10.37" pos="44.05" lane="-326_1" slope="0.00"/>
        <vehicle id="9.3" x="864.01" y="416.83" angle="23.42" type="car" speed="2.05" pos="7.15" lane="-317_0" slope="0.00"/>
        <vehicle id="ego" x="1304.78" y="257.52" angle="292.11" type="DEFAULT_VEHTYPE@ego" speed="14.98" pos="82.96" lane="-2801_0" slope="0.00"/>
    </timestep>
    <timestep time="28995.00">
        <vehicle id="10.6" x="893.63" y="512.45" angle="201.69" type="car" speed="4.19" pos="11.03" lane="-318_0" slope="0.00"/>
        <vehicle id="11.20" x="233.12" y="514.46" angle="113.67" type="car" speed="9.42" pos="33.51" lane="-331_0" slope="0.00"/>
        <vehicle id="12.21" x="706.39" y="498.17" angle="112.50" type="car" speed="14.33" pos="36.02" lane="-3221_0" slope="0.00"/>
        <vehicle id="13.21" x="817.76" y="436.89" angle="11.83" type="car" speed="4.08" pos="10.76" lane="-316_0" slope="0.00"/>
        <vehicle id="14.20" x="887.81" y="435.22" angle="289.48" type="car" speed="16.91" pos="82.31" lane="-327_0" slope="0.00"/>
        <vehicle id="14.21" x="957.71" y="417.91" angle="192.70" type="car" speed="0.00" pos="5.10" lane="-330_0" slope="0.00"/>
        <vehicle id="15.35" x="609.72" y="827.19" angle="225.90" type="car" speed="17.42" pos="83.45" lane="-292_1" slope="0.00"/>
        <vehicle id="15.36" x="653.89" y="870.12" angle="226.48" type="car" speed="6.49" pos="18.44" lane="-292_0" slope="0.00"/>
        <vehicle id="16.40" x="202.15" y="265.19" angle="37.69" type="car" speed="14.02" pos="61.88" lane="-310_0" slope="0.00"/>
        <vehicle id="16.41" x="167.13" y="231.51" angle="39.27" type="car" speed="4.47" pos="11.60" lane="-310_0" slope="0.00"/>
        <vehicle id="2.26" x="269.68" y="684.39" angle="105.05" type="car" speed="7.08" pos="1.01" lane="-293_0" slope="0.00"/>
        <vehicle id="3.6" x="279.90" y="748.24" angle="204.26" type="car" speed="15.00" pos="72.82" lane="-324_1" slope="0.00"/>
        <vehicle id="4.39" x="1336.99" y="244.43" angle="292.11" type="car" speed="11.50" pos="47.79" lane="-2801_0" slope="0.00"/>
        <vehicle id="4.40" x="1373.79" y="229.48" angle="292.11" type="car" speed="2.51" pos="7.61" lane="-2801_0" slope="0.00"/>
        <vehicle id="5.21" x="860.40" y="6.83" angle="22.97" type="car" speed="3.72" pos="11.11" lane="-308_0" slope="0.00"/>
        <vehicle id="6.15" x="1006.89" y="395.32" angle="200.63" type="car" speed="6.35" pos="50.40" lane="-326_1" slope="0.00"/>
        <vehicle id="9.3" x="864.63" y="418.26" angle="23.42" type="car" speed="4.18" pos="11.34" lane="-317_0" slope="0.00"/>
        <vehicle id="ego" x="1289.45" y="263.75" angle="292.11" type="DEFAULT_VEHTYPE@ego" speed="16.74" pos="99.70" lane="-2801_0" slope="0.00"/>
    </timestep>
    <timestep time="28996.00">
        <vehicle id="10.6" x="891.73" y="507.66" angle="201.69" type="car" speed="6.36" pos="17.39" lane="-318_0" slope="0.00"/>
        <vehicle id="11.20" x="243.81" y="509.78" angle="113.67" type="car" speed="11.99" pos="45.50" lane="-331_0" slope="0.00"/>
        <vehicle id="12.21" x="720.45" y="492.34" angle="112.39" type="car" speed="16.10" pos="52.12" lane="-3221_0" slope="0.00"/>
        <vehicle id="13.21" x="818.68" y="439.45" angle="20.70" type="car" speed="6.18" pos="16.95" lane="-316_0" slope="0.00"/>
        <vehicle id="14.20" x="858.13" y="450.07" angle="289.13" type="car" speed="16.52" pos="5.34" lane="-281_1" slope="0.00"/>
        <vehicle id="14.21" x="957.58" y="417.34" angle="192.70" type="car" speed="1.55" pos="6.65" lane="-330_0" slope="0.00"/>
        <vehicle id="15.35" x="596.87" y="814.76" angle="226.15" type="car" speed="18.82" pos="102.27" lane="-292_1" slope="0.00"/>
        <vehicle id="15.36" x="648.08" y="864.60" angle="226.48" type="car" speed="8.46" pos="26.90" lane="-292_0" slope="0.00"/>
        <vehicle id="16.40" x="212.15" y="277.88" angle="38.22" type="car" speed="16.09" pos="77.97" lane="-310_1" slope="0.00"/>
        <vehicle id="16.41" x="171.25" y="236.16" angle="41.84" type="car" speed="6.32" pos="17.92" lane="-310_1" slope="0.00"/>
        <vehicle id="2.26" x="275.99" y="681.84" angle="112.07" type="car" speed="8.72" pos="9.73" lane="-293_0" slope="0.00"/>
        <vehicle id="3.6" x="274.42" y="733.45" angle="200.42" type="car" speed="17.55" pos="90.37" lane="-324_1" slope="0.00"/>
        <vehicle id="4.39" x="1324.47" y="249.52" angle="292.11" type="car" speed="13.67" pos="61.46" lane="-2801_0" slope="0.00"/>
        <vehicle id="4.40" x="1369.61" y="231.18" angle="292.11" type="car" speed="4.56" pos="12.17" lane="-2801_0" slope="0.00"/>
        <vehicle id="5.21" x="862.74" y="12.36" angle="22.97" type="car" speed="6.27" pos="17.39" lane="-308_0" slope="0.00"/>
        <vehicle id="6.15" x="1006.28" y="393.69" angle="200.63" type="car" speed="2.38" pos="52.78" lane="-326_1" slope="0.00"/>
        <vehicle id="9.3" x="865.61" y="420.51" angle="23.42" type="car" speed="6.61" pos="17.95" lane="-317_0" slope="0.00"/>
        <vehicle id="ego" x="1273.86" y="269.05" angle="289.22" type="DEFAULT_VEHTYPE@ego" speed="16.62" pos="116.32" lane="-2801_0" slope="0.00"/>
    </timestep>
    <timestep time="28997.00">
        <vehicle id="10.6" x="889.10" y="501.07" angle="201.68" type="car" speed="8.77" pos="26.16" lane="-318_0" slope="0.00"/>
        <vehicle id="11.20" x="255.79" y="504.30" angle="115.20" type="car" speed="13.53" pos="59.03" lane="-331_0" slope="0.00"/>
        <vehicle id="12.21" x="735.13" y="486.25" angle="112.47" type="car" speed="16.83" pos="68.95" lane="-3221_0" slope="0.00"/>
        <vehicle id="12.22" x="662.58" y="496.37" angle="23.06" type="car" speed="0.00" pos="5.10" lane="-320_0" slope="0.00"/>
        <vehicle id="13.21" x="829.13" y="444.69" angle="64.88" type="car" speed="8.21" pos="2.96" lane="-313_0" slope="0.00"/>
        <vehicle id="14.20" x="847.84" y="453.27" angle="289.21" type="car" speed="16.92" pos="22.26" lane="-281_1" slope="0.00"/>
        <vehicle id="14.21" x="957.25" y="415.90" angle="192.70" type="car" speed="3.93" pos="10.57" lane="-330_0" slope="0.00"/>
        <vehicle id="15.35" x="581.95" y="801.62" angle="228.64" type="car" speed="20.96" pos="123.23" lane="-292_1" slope="0.00"/>
        <vehicle id="15.36" x="640.66" y="857.55" angle="226.48" type="car" speed="10.81" pos="37.71" lane="-292_0" slope="0.00"/>
        <vehicle id="16.40" x="223.36" y="291.94" angle="38.68" type="car" speed="18.49" pos="96.47" lane="-310_1" slope="0.00"/>
        <vehicle id="16.41" x="177.16" y="242.38" angle="43.28" type="car" speed="8.75" pos="26.67" lane="-310_1" slope="0.00"/>
        <vehicle id="16.42" x="162.87" y="226.75" angle="50.81" type="car" speed="0.00" pos="5.10" lane="-310_0" slope="0.00"/>
        <vehicle id="2.26" x="283.45" y="678.82" angle="111.99" type="car" speed="10.32" pos="20.05" lane="-293_0" slope="0.00"/>
        <vehicle id="3.6" x="269.89" y="721.28" angle="200.42" type="car" speed="14.44" pos="104.81" lane="-324_1" slope="0.00"/>
        <vehicle id="4.39" x="1310.09" y="255.36" angle="292.11" type="car" speed="15.70" pos="77.16" lane="-2801_0" slope="0.00"/>
        <vehicle id="4.40" x="1363.05" y="233.84" angle="292.11" type="car" speed="7.16" pos="19.33" lane="-2801_0" slope="0.00"/>
        <vehicle id="5.21" x="865.81" y="19.61" angle="22.97" type="car" speed="8.21" pos="25.59" lane="-308_0" slope="0.00"/>
        <vehicle id="6.15" x="1006.24" y="393.59" angle="200.63" type="car" speed="0.14" pos="52.91" lane="-326_1" slope="0.00"/>
        <vehicle id="9.3" x="865.94" y="421.28" angle="23.42" type="car" speed="2.27" pos="20.22" lane="-317_0" slope="0.00"/>
        <vehicle id="ego" x="1259.65" y="273.96" angle="289.10" type="DEFAULT_VEHTYPE@ego" speed="15.19" pos="131.51" lane="-2801_1" slope="0.00"/>
    </timestep>
    <timestep time="28998.00">
        <vehicle id="10.6" x="885.79" y="492.70" angle="201.51" type="car" speed="11.11" pos="37.27" lane="-318_0" slope="0.00"/>
        <vehicle id="11.20" x="270.48" y="500.38" angle="92.63" type="car" speed="15.82" pos="74.85" lane="-331_0" slope="0.00"/>
        <vehicle id="12.21" x="749.76" y="480.19" angle="112.59" type="car" speed="16.76" pos="85.71" lane="-3221_0" slope="0.00"/>
        <vehicle id="12.22" x="663.09" y="497.55" angle="23.06" type="car" speed="1.96" pos="7.06" lane="-320_0" slope="0.00"/>
        <vehicle id="13.21" x="835.31" y="443.21" angle="106.84" type="car" speed="9.90" pos="12.86" lane="-313_1" slope="0.00"/>
        <vehicle id="14.20" x="840.53" y="456.20" angle="292.14" type="car" speed="12.42" pos="34.69" lane="-281_1" slope="0.00"/>
        <vehicle id="14.21" x="959.88" y="395.66" angle="172.05" type="car" speed="6.46" pos="0.48" lane="-328_3" slope="0.00"/>
        <vehicle id="15.35" x="565.02" y="788.05" angle="232.71" type="car" speed="22.88" pos="146.11" lane="-292_1" slope="0.00"/>
        <vehicle id="15.36" x="632.21" y="849.63" angle="227.19" type="car" speed="12.23" pos="49.94" lane="-292_0" slope="0.00"/>
        <vehicle id="15.37" x="663.06" y="878.82" angle="226.48" type="car" speed="0.00" pos="5.10" lane="-292_0" slope="0.00"/>
        <vehicle id="16.40" x="234.95" y="305.21" angle="41.14" type="car" speed="18.14" pos="114.61" lane="-310_1" slope="0.00"/>
        <vehicle id="16.41" x="183.82" y="249.92" angle="40.99" type="car" speed="10.32" pos="36.99" lane="-310_1" slope="0.00"/>
        <vehicle id="16.42" x="164.28" y="227.90" angle="50.81" type="car" speed="1.88" pos="6.98" lane="-310_0" slope="0.00"/>
        <vehicle id="2.26" x="292.47" y="675.16" angle="112.00" type="car" speed="12.47" pos="32.52" lane="-293_0" slope="0.00"/>
        <vehicle id="2.27" x="239.85" y="693.43" angle="113.16" type="car" speed="0.00" pos="5.10" lane="-312_0" slope="0.00"/>
        <vehicle id="3.6" x="266.77" y="712.91" angle="200.42" type="car" speed="9.94" pos="114.75" lane="-324_1" slope="0.00"/>
        <vehicle id="4.39" x="1295.50" y="261.29" angle="292.11" type="car" speed="15.93" pos="93.09" lane="-2801_0" slope="0.00"/>
        <vehicle id="4.40" x="1354.62" y="237.27" angle="292.11" type="car" speed="9.21" pos="28.54" lane="-2801_0" slope="0.00"/>
        <vehicle id="5.21" x="869.57" y="28.48" angle="22.97" type="car" speed="10.06" pos="35.65" lane="-308_0" slope="0.00"/>
        <vehicle id="6.15" x="1006.24" y="393.59" angle="200.63" type="car" speed="0.01" pos="52.93" lane="-326_1" slope="0.00"/>
        <vehicle id="9.3" x="866.11" y="421.68" angle="23.42" type="car" speed="1.16" pos="21.38" lane="-317_0" slope="0.00"/>
        <vehicle id="ego" x="1243.81" y="279.56" angle="289.50" type="DEFAULT_VEHTYPE@ego" speed="16.97" pos="148.47" lane="-2801_1" slope="0.00"/>
    </timestep>
    <timestep time="28999.00">
        <vehicle id="10.6" x="881.73" y="482.58" angle="202.06" type="car" speed="13.47" pos="50.74" lane="-318_0" slope="0.00"/>
        <vehicle id="11.20" x="281.73" y="510.81" angle="20.32" type="car" speed="17.66" pos="92.51" lane="-331_0" slope="0.00"/>
        <vehicle id="11.21" x="207.06" y="523.33" angle="88.59" type="car" speed="0.00" pos="5.10" lane="-331_0" slope="0.00"/>
        <vehicle id="12.21" x="764.55" y="474.05" angle="112.57" type="car" speed="16.95" pos="102.67" lane="-3221_0" slope="0.00"/>
        <vehicle id="12.22" x="664.21" y="500.19" angle="23.06" type="car" speed="4.40" pos="11.46" lane="-320_0" slope="0.00"/>
        <vehicle id="13.21" x="842.92" y="441.12" angle="107.98" type="car" speed="12.36" pos="25.23" lane="-313_1" slope="0.00"/>
        <vehicle id="14.20" x="835.89" y="458.13" angle="292.60" type="car" speed="7.92" pos="42.61" lane="-281_1" slope="0.00"/>
        <vehicle id="14.21" x="964.34" y="393.78" angle="112.88" type="car" speed="8.38" pos="8.86" lane="-328_3" slope="0.00"/>
        <vehicle id="15.35" x="545.73" y="774.08" angle="234.15" type="car" speed="25.12" pos="171.23" lane="-292_1" slope="0.00"/>
        <vehicle id="15.36" x="622.59" y="840.96" angle="228.30" type="car" speed="13.67" pos="63.61" lane="-292_0" slope="0.00"/>
        <vehicle id="15.37" x="662.08" y="877.89" angle="226.48" type="car" speed="1.43" pos="6.53" lane="-292_0" slope="0.00"/>
        <vehicle id="16.40" x="246.64" y="318.29" angle="41.77" type="car" speed="18.07" pos="132.67" lane="-310_1" slope="0.00"/>
        <vehicle id="16.41" x="192.03" y="259.87" angle="37.95" type="car" speed="12.84" pos="49.83" lane="-310_2" slope="0.00"/>
        <vehicle id="16.42" x="166.83" y="229.98" angle="50.81" type="car" speed="3.38" pos="10.36" lane="-310_0" slope="0.00"/>
        <vehicle id="2.26" x="302.51" y="671.09" angle="112.12" type="car" speed="13.88" pos="46.40" lane="-293_0" slope="0.00"/>
        <vehicle id="2.27" x="240.69" y="693.06" angle="113.16" type="car" speed="1.79" pos="6.89" lane="-312_0" slope="0.00"/>
        <vehicle id="3.6" x="265.07" y="708.33" angle="200.42" type="car" speed="5.44" pos="120.19" lane="-324_1" slope="0.00"/>
        <vehicle id="4.39" x="1281.14" y="267.12" angle="292.11" type="car" speed="15.67" pos="108.76" lane="-2801_0" slope="0.00"/>
        <vehicle id="4.40" x="1344.08" y="241.55" angle="292.11" type="car" speed="11.50" pos="40.04" lane="-2801_0" slope="0.00"/>
        <vehicle id="4.41" x="1376.09" y="228.55" angle="292.11" type="car" speed="0.00" pos="5.10" lane="-2801_0" slope="0.00"/>
        <vehicle id="5.21" x="874.01" y="38.95" angle="22.97" type="car" speed="11.86" pos="47.51" lane="-308_0" slope="0.00"/>
        <vehicle id="6.15" x="1006.24" y="393.59" angle="200.63" type="car" speed="0.00" pos="52.93" lane="-326_1" slope="0.00"/>
        <vehicle id="9.3" x="866.12" y="421.69" angle="23.42" type="car" speed="0.04" pos="21.42" lane="-317_0" slope="0.00"/>
        <vehicle id="ego" x="1228.72" y="285.70" angle="292.18" type="DEFAULT_VEHTYPE@ego" speed="16.48" pos="164.95" lane="-2801_1" slope="0.00"/>
    </timestep>
    <timestep time="29000.00">
        <vehicle id="1.2" x="3.01" y="601.82" angle="114.26" type="car" speed="0.00" pos="5.10" lane="-309_0" slope="0.00"/>
        <vehicle id="10.6" x="876.97" y="471.45" angle="203.09" type="car" speed="14.95" pos="65.69" lane="-318_0" slope="0.00"/>
        <vehicle id="11.20" x="288.54" y="529.09" angle="21.28" type="car" speed="20.05" pos="112.56" lane="-331_0" slope="0.00"/>
        <vehicle id="11.21" x="209.22" y="523.04" angle="94.87" type="car" speed="2.23" pos="7.33" lane="-331_0" slope="0.00"/>
        <vehicle id="12.21" x="778.37" y="468.30" angle="112.61" type="car" speed="15.84" pos="118.51" lane="-3221_0" slope="0.00"/>
        <vehicle id="12.22" x="665.84" y="504.02" angle="23.06" type="car" speed="6.36" pos="17.82" lane="-320_0" slope="0.00"/>
        <vehicle id="13.21" x="851.23" y="437.88" angle="111.79" type="car" speed="14.06" pos="39.28" lane="-313_1" slope="0.00"/>
        <vehicle id="14.20" x="833.64" y="459.07" angle="292.60" type="car" speed="3.84" pos="46.45" lane="-281_1" slope="0.00"/>
        <vehicle id="14.21" x="969.80" y="391.48" angle="112.88" type="car" speed="10.27" pos="19.13" lane="-328_3" slope="0.00"/>
        <vehicle id="15.35" x="524.46" y="758.71" angle="234.15" type="car" speed="27.66" pos="198.90" lane="-292_1" slope="0.00"/>
        <vehicle id="15.36" x="612.22" y="830.66" angle="225.48" type="car" speed="15.39" pos="79.00" lane="-292_0" slope="0.00"/>
        <vehicle id="15.37" x="659.56" y="875.50" angle="226.48" type="car" speed="3.67" pos="10.19" lane="-292_0" slope="0.00"/>
        <vehicle id="16.40" x="258.70" y="331.79" angle="41.77" type="car" speed="18.64" pos="151.31" lane="-310_1" slope="0.00"/>
        <vehicle id="16.41" x="201.11" y="271.53" angle="38.00" type="car" speed="15.18" pos="65.01" lane="-310_2" slope="0.00"/>
        <vehicle id="16.42" x="171.04" y="233.41" angle="50.81" type="car" speed="5.60" pos="15.96" lane="-310_0" slope="0.00"/>
        <vehicle id="2.26" x="313.99" y="666.44" angle="112.07" type="car" speed="15.87" pos="62.28" lane="-293_0" slope="0.00"/>
        <vehicle id="2.27" x="242.42" y="692.32" angle="113.16" type="car" speed="3.65" pos="10.54" lane="-312_0" slope="0.00"/>
        <vehicle id="3.6" x="264.69" y="707.31" angle="200.42" type="car" speed="1.21" pos="121.40" lane="-324_1" slope="0.00"/>
        <vehicle id="4.39" x="1266.26" y="272.26" angle="289.27" type="car" speed="15.89" pos="124.66" lane="-2801_0" slope="0.00"/>
        <vehicle id="4.40" x="1331.78" y="246.55" angle="292.11" type="car" speed="13.43" pos="53.48" lane="-2801_0" slope="0.00"/>
        <vehicle id="4.41" x="1373.85" y="229.46" angle="292.11" type="car" speed="2.44" pos="7.54" lane="-2801_0" slope="0.00"/>
        <vehicle id="5.21" x="879.35" y="51.56" angle="22.95" type="car" speed="14.29" pos="61.80" lane="-308_0" slope="0.00"/>
        <vehicle id="6.15" x="1006.24" y="393.59" angle="200.63" type="car" speed="0.00" pos="52.93" lane="-326_1" slope="0.00"/>
        <vehicle id="6.16" x="1015.57" y="426.69" angle="202.51" type="car" speed="0.00" pos="5.10" lane="-326_0" slope="0.00"/>
        <vehicle id="9.3" x="866.12" y="421.70" angle="23.42" type="car" speed="0.03" pos="21.45" lane="-317_0" slope="0.00"/>
        <vehicle id="ego" x="1213.72" y="292.03" angle="292.87" type="DEFAULT_VEHTYPE@ego" speed="16.47" pos="181.42" lane="-2801_1" slope="0.00"/>
    </timestep>